      -----------------------------------------------------------      
     |                   =====================                   |     
     |                           x T B                           |     
     |                   =====================                   |     
     |                         S. Grimme                         |     
     |          Mulliken Center for Theoretical Chemistry        |     
     |                    University of Bonn                     |     
      -----------------------------------------------------------      

   * xtb version 6.7.0 (08769fc) compiled by 'albert@albert-system' on 2024-03-04

   xtb is free software: you can redistribute it and/or modify it under
   the terms of the GNU Lesser General Public License as published by
   the Free Software Foundation, either version 3 of the License, or
   (at your option) any later version.
   
   xtb is distributed in the hope that it will be useful,
   but WITHOUT ANY WARRANTY; without even the implied warranty of
   MERCHANTABILITY or FITNESS FOR A PARTICULAR PURPOSE.  See the
   GNU Lesser General Public License for more details.
   
   Cite this work as:
   * C. Bannwarth, E. Caldeweyher, S. Ehlert, A. Hansen, P. Pracht,
     J. Seibert, S. Spicher, S. Grimme, WIREs Comput. Mol. Sci., 2020, 11,
     e01493. DOI: 10.1002/wcms.1493
   
   for GFN2-xTB:
   * C. Bannwarth, S. Ehlert and S. Grimme., J. Chem. Theory Comput., 2019,
     15, 1652-1671. DOI: 10.1021/acs.jctc.8b01176
   for GFN1-xTB:
   * S. Grimme, C. Bannwarth, P. Shushkov, J. Chem. Theory Comput., 2017,
     13, 1989-2009. DOI: 10.1021/acs.jctc.7b00118
   for GFN0-xTB:
   * P. Pracht, E. Caldeweyher, S. Ehlert, S. Grimme, ChemRxiv, 2019, preprint.
     DOI: 10.26434/chemrxiv.8326202.v1
   for GFN-FF:
   * S. Spicher and S. Grimme, Angew. Chem. Int. Ed., 2020, 59, 15665-15673.
     DOI: 10.1002/anie.202004239
   
   for ALPB and GBSA implicit solvation:
   * S. Ehlert, M. Stahn, S. Spicher, S. Grimme, J. Chem. Theory Comput.,
     2021, 17, 4250-4261. DOI: 10.1021/acs.jctc.1c00471
   
   for ddCOSMO and CPCM-X implicit solvation:
   * M. Stahn, S. Ehlert, S. Grimme, J. Phys. Chem. A,
     2023, XX, XXXX-XXXX. DOI: 10.1021/acs.jpca.3c04382
   
   for DFT-D4:
   * E. Caldeweyher, C. Bannwarth and S. Grimme, J. Chem. Phys., 2017,
     147, 034112. DOI: 10.1063/1.4993215
   * E. Caldeweyher, S. Ehlert, A. Hansen, H. Neugebauer, S. Spicher,
     C. Bannwarth and S. Grimme, J. Chem. Phys., 2019, 150, 154122.
     DOI: 10.1063/1.5090222
   * E. Caldeweyher, J.-M. Mewes, S. Ehlert and S. Grimme, Phys. Chem. Chem. Phys.
     2020, 22, 8499-8512. DOI: 10.1039/D0CP00502A
   
   for sTDA-xTB:
   * S. Grimme and C. Bannwarth, J. Chem. Phys., 2016, 145, 054103.
     DOI: 10.1063/1.4959605
   
   in the mass-spec context:
   * V. Asgeirsson, C. Bauer and S. Grimme, Chem. Sci., 2017, 8, 4879.
     DOI: 10.1039/c7sc00601b
   * J. Koopman and S. Grimme, ACS Omega 2019, 4, 12, 15120-15133.
     DOI: 10.1021/acsomega.9b02011
   
   for metadynamics refer to:
   * S. Grimme, J. Chem. Theory Comput., 2019, 155, 2847-2862
     DOI: 10.1021/acs.jctc.9b00143
   
   for SPH calculations refer to:
   * S. Spicher and S. Grimme, J. Chem. Theory Comput., 2021, 17, 1701-1714
     DOI: 10.1021/acs.jctc.0c01306
   
   for ONIOM refer to:
   * C. Plett, A. Katbashev, S. Ehlert, S. Grimme, M. Bursch,
     Phys. Chem. Chem. Phys., 2023, 25, 17860-17868. DOI: 10.1039/D3CP02178E
   
   for DIPRO refer to:
   * J. Kohn, N. Gildemeister, S. Grimme, D. Fazzi, A. Hansen,
     J. Chem. Phys., 2023, just accepted.
   
   for PTB refer to:
   * S. Grimme, M. Mueller, A. Hansen, J. Chem. Phys., 2023, 158, 124111.
     DOI: 10.1063/5.0137838
   
   with help from (in alphabetical order)
   P. Atkinson, C. Bannwarth, F. Bohle, G. Brandenburg, E. Caldeweyher
   M. Checinski, S. Dohm, S. Ehlert, S. Ehrlich, I. Gerasimov, C. Hölzer
   A. Katbashev, J. Kohn, J. Koopman, C. Lavigne, S. Lehtola, F. März, M. Müller,
   F. Musil, H. Neugebauer, J. Pisarek, C. Plett, P. Pracht, F. Pultar,
   J. Seibert, P. Shushkov, S. Spicher, M. Stahn, M. Steiner, T. Strunk,
   J. Stückrath, T. Rose, and J. Unsleber
   
 * started run on 2024/08/07 at 19:54:12.573     
   ID    Z sym.   atoms
    1    6 C      1-3, 6
    2    8 O      4
    3    7 N      5, 7
    4    1 H      8-15

           -------------------------------------------------
          |                Calculation Setup                |
           -------------------------------------------------

          program call               : /home/mvotokps/xtb-dist/bin/xtb crest_best.xyz --gfn 2 --alpb toluene --opt vtight -c 0 --iterations 4000
          coordinate file            : crest_best.xyz
          omp threads                :                     8


           -------------------------------------------------
          |                 G F N 2 - x T B                 |
           -------------------------------------------------

        Reference                      10.1021/acs.jctc.8b01176
      * Hamiltonian:
        H0-scaling (s, p, d)           1.850000    2.230000    2.230000
        zeta-weighting                 0.500000
      * Dispersion:
        s8                             2.700000
        a1                             0.520000
        a2                             5.000000
        s9                             5.000000
      * Repulsion:
        kExp                           1.500000    1.000000
        rExp                           1.000000
      * Coulomb:
        alpha                          2.000000
        third order                    shell-resolved
        anisotropic                    true
        a3                             3.000000
        a5                             4.000000
        cn-shift                       1.200000
        cn-exp                         4.000000
        max-rad                        5.000000

      * Solvation model:               ALPB
        Solvent                        toluene
        Parameter file                 internal GFN2-xTB/ALPB
        Dielectric constant                7.0000E+00
        Reference state                gsolv [1 M gas/solution]
        Free energy shift                  2.2081E-03 Eh       1.3856E+00 kcal/mol
        Temperature                        2.9815E+02 K
        Density                            8.6700E-01 kg/L
        Solvent mass                       7.8110E+01 g/mol
        Interaction kernel             P16
        Born radius scaling (c1)           1.7172E+00
        Born radii integrator          GBOBC
        Born offset                        0.0000E+00 a0       0.0000E+00 AA
        H-bond correction              false
        Ion screening                  false
        Surface tension                    1.0000E-05 Eh       1.5569E+01 dyn/cm
        Grid points                               230 per atom

          ...................................................
          :                      SETUP                      :
          :.................................................:
          :  # basis functions                  36          :
          :  # atomic orbitals                  36          :
          :  # shells                           22          :
          :  # electrons                        40          :
          :  max. iterations                  4000          :
          :  Hamiltonian                  GFN2-xTB          :
          :  restarted?                      false          :
          :  GBSA solvation                   true          :
          :  PC potential                    false          :
          :  electronic temp.          300.0000000     K    :
          :  accuracy                    1.0000000          :
          :  -> integral cutoff          0.2500000E+02      :
          :  -> integral neglect         0.1000000E-07      :
          :  -> SCF convergence          0.1000000E-05 Eh   :
          :  -> wf. convergence          0.1000000E-03 e    :
          :  Broyden damping             0.4000000          :
          :  net charge                          0          :
          :  unpaired electrons                  0          :
          ...................................................

 iter      E             dE          RMSdq      gap      omega  full diag
   1    -22.7837346 -0.227837E+02  0.432E+00    3.77       0.0  T
   2    -22.8360278 -0.522933E-01  0.234E+00    3.37       1.0  T
   3    -22.8376047 -0.157684E-02  0.118E+00    3.38       1.0  T
   4    -22.8383813 -0.776653E-03  0.219E-01    3.12       1.0  T
   5    -22.8388380 -0.456713E-03  0.893E-02    3.17       1.0  T
   6    -22.8388458 -0.778548E-05  0.349E-02    3.16       1.0  T
   7    -22.8388465 -0.682164E-06  0.122E-02    3.17       2.1  T
   8    -22.8388473 -0.779018E-06  0.540E-03    3.16       4.8  T
   9    -22.8388474 -0.800088E-07  0.170E-03    3.16      15.2  T
  10    -22.8388474 -0.737679E-08  0.706E-04    3.16      36.6  T
  11    -22.8388474 -0.104470E-08  0.126E-04    3.16     204.6  T

   *** convergence criteria satisfied after 11 iterations ***

         #    Occupation            Energy/Eh            Energy/eV
      -------------------------------------------------------------
         1        2.0000           -0.7229374             -19.6721
       ...           ...                  ...                  ...
        14        2.0000           -0.4865427             -13.2395
        15        2.0000           -0.4818464             -13.1117
        16        2.0000           -0.4680873             -12.7373
        17        2.0000           -0.4522939             -12.3075
        18        2.0000           -0.4217730             -11.4770
        19        2.0000           -0.4191930             -11.4068
        20        2.0000           -0.3747451             -10.1973 (HOMO)
        21                         -0.2584799              -7.0336 (LUMO)
        22                         -0.1954115              -5.3174
        23                         -0.0014594              -0.0397
        24                          0.0604436               1.6448
        25                          0.1231551               3.3512
       ...                                ...                  ...
        36                          0.6180560              16.8182
      -------------------------------------------------------------
                  HL-Gap            0.1162652 Eh            3.1637 eV
             Fermi-level           -0.3166125 Eh           -8.6155 eV

 SCC (total)                   0 d,  0 h,  0 min,  0.112 sec
 SCC setup                      ...        0 min,  0.000 sec (  0.336%)
 Dispersion                     ...        0 min,  0.000 sec (  0.109%)
 classical contributions        ...        0 min,  0.000 sec (  0.015%)
 integral evaluation            ...        0 min,  0.001 sec (  0.531%)
 iterations                     ...        0 min,  0.109 sec ( 97.715%)
 molecular gradient             ...        0 min,  0.001 sec (  1.145%)
 printout                       ...        0 min,  0.000 sec (  0.118%)

         :::::::::::::::::::::::::::::::::::::::::::::::::::::
         ::                     SUMMARY                     ::
         :::::::::::::::::::::::::::::::::::::::::::::::::::::
         :: total energy             -22.548658990940 Eh    ::
         :: total w/o Gsasa/hb       -22.540041921496 Eh    ::
         :: gradient norm              0.061667499233 Eh/a0 ::
         :: HOMO-LUMO gap              3.163735875808 eV    ::
         ::.................................................::
         :: SCC energy               -22.838836372227 Eh    ::
         :: -> isotropic ES            0.052506275691 Eh    ::
         :: -> anisotropic ES          0.002842300077 Eh    ::
         :: -> anisotropic XC          0.013824347828 Eh    ::
         :: -> dispersion             -0.008790328733 Eh    ::
         :: -> Gsolv                  -0.013004723952 Eh    ::
         ::    -> Gelec               -0.004387654508 Eh    ::
         ::    -> Gsasa               -0.010825212582 Eh    ::
         ::    -> Ghb                  0.000000000000 Eh    ::
         ::    -> Gshift               0.002208143139 Eh    ::
         :: repulsion energy           0.290177381287 Eh    ::
         :: add. restraining           0.000000000000 Eh    ::
         :: total charge               0.000000000000 e     ::
         :::::::::::::::::::::::::::::::::::::::::::::::::::::

      ----------------------------------------------------------- 
     |                   =====================                   |
     |                        A N C O P T                        |
     |                   =====================                   |
     |               Approximate Normal Coordinate               |
     |                Rational Function Optimizer                |
      ----------------------------------------------------------- 
      ----------------------------------------------------------- 
     |                   =====================                   |
     |                        A N C O P T                        |
     |                   =====================                   |
     |               Approximate Normal Coordinate               |
     |                Rational Function Optimizer                |
      ----------------------------------------------------------- 

          ...................................................
          :                      SETUP                      :
          :.................................................:
          :   optimization level         verytight          :
          :   max. optcycles                   300          :
          :   ANC micro-cycles                  20          :
          :   degrees of freedom                39          :
          :.................................................:
          :   RF solver                   davidson          :
          :   write xtbopt.log                true          :
          :   linear?                        false          :
          :   energy convergence         0.1000000E-06 Eh   :
          :   grad. convergence          0.2000000E-03 Eh/α :
          :   maxmium RF displ.          1.0000000          :
          :   Hlow (freq-cutoff)         0.1000000E-01      :
          :   Hmax (freq-cutoff)         5.0000000          :
          :   S6 in model hess.         20.0000000          :
          ...................................................

generating ANC from model Hessian ...
Using Lindh-Hessian (1995)
 Shifting diagonal of input Hessian by   7.004693571319392E-003
 Lowest  eigenvalues of input Hessian
    0.000000    0.000000    0.000000    0.000000    0.000000    0.000000
    0.010000    0.010696    0.014934    0.021615    0.022908    0.031927
    0.041302    0.053027    0.061030    0.062516    0.069403    0.078160
 Highest eigenvalues
    1.260606    1.382092    1.528713    1.945663    2.238316    2.322177
 

........................................................................
.............................. CYCLE    1 ..............................
........................................................................

 iter      E             dE          RMSdq      gap      omega  full diag
   1    -22.8388474 -0.228388E+02  0.427E-05    3.16       0.0  T
   2    -22.8388474 -0.194333E-11  0.234E-05    3.16    1104.2  T
   3    -22.8388474 -0.355271E-13  0.105E-05    3.16    2466.5  T
     SCC iter.                  ...        0 min,  0.101 sec
     gradient                   ...        0 min,  0.001 sec
 * total energy  :   -22.5486590 Eh     change       -0.5371348E-10 Eh
   gradient norm :     0.0616672 Eh/α   predicted     0.0000000E+00 (-100.00%)
   displ. norm   :     0.2709511 α      lambda       -0.6212507E-02
   maximum displ.:     0.1625494 α      in ANC's #6, #7, #11, ...

........................................................................
.............................. CYCLE    2 ..............................
........................................................................

 iter      E             dE          RMSdq      gap      omega  full diag
   1    -22.8382801 -0.228383E+02  0.250E-01    3.25       0.0  T
   2    -22.8383302 -0.500477E-04  0.138E-01    3.29       1.0  T
   3    -22.8383213  0.886557E-05  0.593E-02    3.28       1.0  T
   4    -22.8383371 -0.158153E-04  0.131E-02    3.29       2.0  T
   5    -22.8383383 -0.121216E-05  0.328E-03    3.28       7.9  T
   6    -22.8383383 -0.650801E-08  0.164E-03    3.28      15.7  T
   7    -22.8383384 -0.348494E-08  0.378E-04    3.28      68.3  T
   8    -22.8383384 -0.452712E-09  0.211E-04    3.28     122.6  T
     SCC iter.                  ...        0 min,  0.100 sec
     gradient                   ...        0 min,  0.002 sec
 * total energy  :   -22.5528799 Eh     change       -0.4220924E-02 Eh
   gradient norm :     0.0238133 Eh/α   predicted    -0.3334294E-02 ( -21.01%)
   displ. norm   :     0.2340509 α      lambda       -0.1850682E-02
   maximum displ.:     0.1251959 α      in ANC's #6, #5, #7, ...

........................................................................
.............................. CYCLE    3 ..............................
........................................................................

 iter      E             dE          RMSdq      gap      omega  full diag
   1    -22.8389754 -0.228390E+02  0.147E-01    3.37       0.0  T
   2    -22.8389940 -0.186735E-04  0.812E-02    3.38       1.0  T
   3    -22.8389921  0.193298E-05  0.317E-02    3.37       1.0  T
   4    -22.8389961 -0.395803E-05  0.863E-03    3.38       3.0  T
   5    -22.8389966 -0.504365E-06  0.247E-03    3.37      10.4  T
   6    -22.8389966 -0.495677E-08  0.112E-03    3.37      23.1  T
   7    -22.8389966 -0.842729E-09  0.268E-04    3.37      96.2  T
   8    -22.8389966 -0.108113E-09  0.107E-04    3.37     240.8  T
     SCC iter.                  ...        0 min,  0.104 sec
     gradient                   ...        0 min,  0.001 sec
 * total energy  :   -22.5539799 Eh     change       -0.1100023E-02 Eh
   gradient norm :     0.0088295 Eh/α   predicted    -0.9760268E-03 ( -11.27%)
   displ. norm   :     0.1029926 α      lambda       -0.2499875E-03
   maximum displ.:     0.0508676 α      in ANC's #5, #3, #6, ...

........................................................................
.............................. CYCLE    4 ..............................
........................................................................

 iter      E             dE          RMSdq      gap      omega  full diag
   1    -22.8404717 -0.228405E+02  0.471E-02    3.41       0.0  T
   2    -22.8404736 -0.185115E-05  0.272E-02    3.41       1.0  T
   3    -22.8404735  0.296039E-08  0.755E-03    3.41       3.4  T
   4    -22.8404737 -0.129452E-06  0.218E-03    3.41      11.8  T
   5    -22.8404737 -0.298857E-07  0.863E-04    3.41      29.9  T
   6    -22.8404737 -0.105662E-08  0.370E-04    3.41      69.8  T
     SCC iter.                  ...        0 min,  0.100 sec
     gradient                   ...        0 min,  0.003 sec
 * total energy  :   -22.5541540 Eh     change       -0.1740449E-03 Eh
   gradient norm :     0.0061751 Eh/α   predicted    -0.1263212E-03 ( -27.42%)
   displ. norm   :     0.0906163 α      lambda       -0.1230249E-03
   maximum displ.:     0.0454560 α      in ANC's #5, #3, #4, ...

........................................................................
.............................. CYCLE    5 ..............................
........................................................................

 iter      E             dE          RMSdq      gap      omega  full diag
   1    -22.8417167 -0.228417E+02  0.372E-02    3.42       0.0  T
   2    -22.8417178 -0.104086E-05  0.217E-02    3.42       1.2  T
   3    -22.8417178 -0.208079E-07  0.559E-03    3.42       4.6  T
   4    -22.8417178 -0.563926E-07  0.124E-03    3.42      20.8  T
   5    -22.8417178 -0.792432E-08  0.643E-04    3.42      40.2  T
   6    -22.8417178 -0.339043E-09  0.196E-04    3.42     132.0  T
     SCC iter.                  ...        0 min,  0.104 sec
     gradient                   ...        0 min,  0.002 sec
 * total energy  :   -22.5542330 Eh     change       -0.7903013E-04 Eh
   gradient norm :     0.0036499 Eh/α   predicted    -0.6201578E-04 ( -21.53%)
   displ. norm   :     0.0513641 α      lambda       -0.3358916E-04
   maximum displ.:     0.0277605 α      in ANC's #2, #4, #5, ...

........................................................................
.............................. CYCLE    6 ..............................
........................................................................

 iter      E             dE          RMSdq      gap      omega  full diag
   1    -22.8421012 -0.228421E+02  0.219E-02    3.42       0.0  T
   2    -22.8421014 -0.242407E-06  0.126E-02    3.42       2.0  T
   3    -22.8421014  0.135181E-07  0.331E-03    3.42       7.8  T
   4    -22.8421014 -0.444637E-07  0.915E-04    3.42      28.2  T
   5    -22.8421014 -0.586179E-08  0.422E-04    3.42      61.1  T
     SCC iter.                  ...        0 min,  0.129 sec
     gradient                   ...        0 min,  0.011 sec
 * total energy  :   -22.5542555 Eh     change       -0.2245689E-04 Eh
   gradient norm :     0.0015867 Eh/α   predicted    -0.1683878E-04 ( -25.02%)
   displ. norm   :     0.0548815 α      lambda       -0.1370845E-04
   maximum displ.:     0.0438135 α      in ANC's #2, #4, #1, ...

........................................................................
.............................. CYCLE    7 ..............................
........................................................................

 iter      E             dE          RMSdq      gap      omega  full diag
   1    -22.8422784 -0.228423E+02  0.281E-02    3.42       0.0  T
   2    -22.8422786 -0.253032E-06  0.159E-02    3.42       1.6  T
   3    -22.8422786  0.470477E-07  0.406E-03    3.42       6.4  T
   4    -22.8422787 -0.116617E-06  0.883E-04    3.42      29.2  T
   5    -22.8422787 -0.251967E-08  0.472E-04    3.42      54.7  T
     SCC iter.                  ...        0 min,  0.261 sec
     gradient                   ...        0 min,  0.069 sec
 * total energy  :   -22.5542660 Eh     change       -0.1051950E-04 Eh
   gradient norm :     0.0012756 Eh/α   predicted    -0.6861639E-05 ( -34.77%)
   displ. norm   :     0.0241635 α      lambda       -0.4599994E-05
   maximum displ.:     0.0204626 α      in ANC's #2, #5, #6, ...

........................................................................
.............................. CYCLE    8 ..............................
........................................................................

 iter      E             dE          RMSdq      gap      omega  full diag
   1    -22.8422406 -0.228422E+02  0.137E-02    3.41       0.0  T
   2    -22.8422407 -0.384221E-07  0.791E-03    3.41       3.3  T
   3    -22.8422407  0.311471E-08  0.126E-03    3.41      20.5  T
   4    -22.8422407 -0.119640E-07  0.375E-04    3.41      68.9  T
   5    -22.8422407 -0.514888E-09  0.180E-04    3.41     143.8  T
     SCC iter.                  ...        0 min,  0.146 sec
     gradient                   ...        0 min,  0.001 sec
 * total energy  :   -22.5542713 Eh     change       -0.5296632E-05 Eh
   gradient norm :     0.0009495 Eh/α   predicted    -0.2299641E-05 ( -56.58%)
   displ. norm   :     0.0425227 α      lambda       -0.6048228E-05
   maximum displ.:     0.0360233 α      in ANC's #2, #5, #6, ...

........................................................................
.............................. CYCLE    9 ..............................
........................................................................

 iter      E             dE          RMSdq      gap      omega  full diag
   1    -22.8421416 -0.228421E+02  0.223E-02    3.41       0.0  T
   2    -22.8421417 -0.107632E-06  0.128E-02    3.41       2.0  T
   3    -22.8421418 -0.211206E-07  0.111E-03    3.41      23.3  T
   4    -22.8421418 -0.365957E-08  0.505E-04    3.41      51.1  T
   5    -22.8421418 -0.686569E-09  0.273E-04    3.41      94.6  T
     SCC iter.                  ...        0 min,  0.100 sec
     gradient                   ...        0 min,  0.001 sec
 * total energy  :   -22.5542777 Eh     change       -0.6462965E-05 Eh
   gradient norm :     0.0006018 Eh/α   predicted    -0.3024973E-05 ( -53.20%)
   displ. norm   :     0.0442341 α      lambda       -0.4797223E-05
   maximum displ.:     0.0397417 α      in ANC's #2, #4, #5, ...

........................................................................
.............................. CYCLE   10 ..............................
........................................................................

 iter      E             dE          RMSdq      gap      omega  full diag
   1    -22.8421219 -0.228421E+02  0.227E-02    3.41       0.0  T
   2    -22.8421220 -0.628734E-07  0.132E-02    3.41       2.0  T
   3    -22.8421220 -0.195125E-07  0.822E-04    3.41      31.4  T
   4    -22.8421220 -0.636373E-09  0.414E-04    3.41      62.3  T
     SCC iter.                  ...        0 min,  0.100 sec
     gradient                   ...        0 min,  0.002 sec
 * total energy  :   -22.5542843 Eh     change       -0.6570195E-05 Eh
   gradient norm :     0.0008733 Eh/α   predicted    -0.2400770E-05 ( -63.46%)
   displ. norm   :     0.0648044 α      lambda       -0.7471636E-05
   maximum displ.:     0.0562315 α      in ANC's #2, #4, #1, ...

........................................................................
.............................. CYCLE   11 ..............................
........................................................................

 iter      E             dE          RMSdq      gap      omega  full diag
   1    -22.8421512 -0.228422E+02  0.318E-02    3.41       0.0  T
   2    -22.8421513 -0.840411E-07  0.185E-02    3.41       1.4  T
   3    -22.8421513 -0.363449E-07  0.994E-04    3.41      26.0  T
   4    -22.8421513 -0.575479E-09  0.488E-04    3.41      52.9  T
     SCC iter.                  ...        0 min,  0.099 sec
     gradient                   ...        0 min,  0.001 sec
 * total energy  :   -22.5542954 Eh     change       -0.1109653E-04 Eh
   gradient norm :     0.0012438 Eh/α   predicted    -0.3742207E-05 ( -66.28%)
   displ. norm   :     1.4030299 α      lambda       -0.1613289E-03
   maximum displ.:     1.2194470 α      in ANC's #2, #4, #1, ...

........................................................................
.............................. CYCLE   12 ..............................
........................................................................

 iter      E             dE          RMSdq      gap      omega  full diag
   1    -22.8207084 -0.228207E+02  0.708E-01    3.31       0.0  T
   2    -22.8207676 -0.592279E-04  0.412E-01    3.32       1.0  T
   3    -22.8207711 -0.349153E-05  0.437E-02    3.30       1.0  T
   4    -22.8207892 -0.181056E-04  0.165E-02    3.31       1.6  T
   5    -22.8207895 -0.276513E-06  0.747E-03    3.31       3.5  T
   6    -22.8207896 -0.938611E-07  0.220E-03    3.31      11.7  T
   7    -22.8207896 -0.284334E-07  0.101E-03    3.31      25.5  T
   8    -22.8207896 -0.110049E-08  0.320E-04    3.31      80.6  T
   9    -22.8207896 -0.322760E-09  0.813E-05    3.31     317.6  T
     SCC iter.                  ...        0 min,  0.100 sec
     gradient                   ...        0 min,  0.001 sec
 * total energy  :   -22.5529073 Eh     change        0.1388066E-02 Eh
   gradient norm :     0.0377876 Eh/α   predicted    -0.1512837E-03 (-110.90%)
   displ. norm   :     0.4493445 α      lambda       -0.2759743E-02
   maximum displ.:     0.3845102 α      in ANC's #2, #4, #1, ...

........................................................................
.............................. CYCLE   13 ..............................
........................................................................

 iter      E             dE          RMSdq      gap      omega  full diag
   1    -22.8381973 -0.228382E+02  0.251E-01    3.41       0.0  T
   2    -22.8382204 -0.230067E-04  0.145E-01    3.40       1.0  T
   3    -22.8382162  0.412049E-05  0.327E-02    3.41       1.0  T
   4    -22.8382253 -0.909975E-05  0.696E-03    3.40       3.7  T
   5    -22.8382254 -0.737875E-07  0.385E-03    3.40       6.7  T
   6    -22.8382254 -0.999620E-08  0.124E-03    3.40      20.9  T
   7    -22.8382254 -0.741216E-08  0.508E-04    3.40      50.8  T
   8    -22.8382254 -0.490303E-09  0.234E-04    3.40     110.2  T
     SCC iter.                  ...        0 min,  0.101 sec
     gradient                   ...        0 min,  0.001 sec
 * total energy  :   -22.5543820 Eh     change       -0.1474678E-02 Eh
   gradient norm :     0.0114055 Eh/α   predicted    -0.1658482E-02 (  12.46%)
   displ. norm   :     0.0367729 α      lambda       -0.1551214E-03
   maximum displ.:     0.0153433 α      in ANC's #1, #5, #6, ...

........................................................................
.............................. CYCLE   14 ..............................
........................................................................

 iter      E             dE          RMSdq      gap      omega  full diag
   1    -22.8415313 -0.228415E+02  0.297E-02    3.41       0.0  T
   2    -22.8415326 -0.129933E-05  0.167E-02    3.41       1.5  T
   3    -22.8415326  0.154945E-08  0.661E-03    3.41       3.9  T
   4    -22.8415328 -0.119818E-06  0.148E-03    3.41      17.4  T
   5    -22.8415328 -0.119393E-07  0.597E-04    3.41      43.2  T
   6    -22.8415328  0.558913E-10  0.252E-04    3.41     102.4  T
     SCC iter.                  ...        0 min,  0.134 sec
     gradient                   ...        0 min,  0.006 sec
 * total energy  :   -22.5544838 Eh     change       -0.1017833E-03 Eh
   gradient norm :     0.0076435 Eh/α   predicted    -0.7766465E-04 ( -23.70%)
   displ. norm   :     0.0568164 α      lambda       -0.6958269E-04
   maximum displ.:     0.0451225 α      in ANC's #2, #1, #3, ...

........................................................................
.............................. CYCLE   15 ..............................
........................................................................

 iter      E             dE          RMSdq      gap      omega  full diag
   1    -22.8435939 -0.228436E+02  0.404E-02    3.43       0.0  T
   2    -22.8435945 -0.579262E-06  0.234E-02    3.43       1.1  T
   3    -22.8435944  0.165042E-07  0.422E-03    3.43       6.1  T
   4    -22.8435946 -0.143709E-06  0.130E-03    3.43      19.9  T
   5    -22.8435946 -0.280690E-08  0.609E-04    3.43      42.4  T
   6    -22.8435946 -0.441126E-09  0.190E-04    3.43     136.0  T
     SCC iter.                  ...        0 min,  0.145 sec
     gradient                   ...        0 min,  0.003 sec
 * total energy  :   -22.5545337 Eh     change       -0.4984915E-04 Eh
   gradient norm :     0.0070408 Eh/α   predicted    -0.3490420E-04 ( -29.98%)
   displ. norm   :     0.1513697 α      lambda       -0.9144789E-04
   maximum displ.:     0.1337303 α      in ANC's #2, #1, #3, ...

........................................................................
.............................. CYCLE   16 ..............................
........................................................................

 iter      E             dE          RMSdq      gap      omega  full diag
   1    -22.8446538 -0.228447E+02  0.880E-02    3.43       0.0  T
   2    -22.8446549 -0.113244E-05  0.508E-02    3.43       1.0  T
   3    -22.8446552 -0.302682E-06  0.433E-03    3.43       6.0  T
   4    -22.8446553 -0.114071E-06  0.220E-03    3.43      11.7  T
   5    -22.8446553 -0.677982E-08  0.720E-04    3.43      35.9  T
   6    -22.8446553 -0.133182E-08  0.228E-04    3.43     113.1  T
     SCC iter.                  ...        0 min,  0.103 sec
     gradient                   ...        0 min,  0.002 sec
 * total energy  :   -22.5546139 Eh     change       -0.8019373E-04 Eh
   gradient norm :     0.0063415 Eh/α   predicted    -0.4677147E-04 ( -41.68%)
   displ. norm   :     0.6326992 α      lambda       -0.3245618E-03
   maximum displ.:     0.5604386 α      in ANC's #2, #1, #4, ...

........................................................................
.............................. CYCLE   17 ..............................
........................................................................

 iter      E             dE          RMSdq      gap      omega  full diag
   1    -22.8410841 -0.228411E+02  0.361E-01    3.41       0.0  T
   2    -22.8410982 -0.140731E-04  0.209E-01    3.41       1.0  T
   3    -22.8411043 -0.606208E-05  0.129E-02    3.41       2.0  T
   4    -22.8411042  0.521070E-07  0.557E-03    3.41       4.6  T
   5    -22.8411044 -0.197865E-06  0.130E-03    3.41      19.9  T
   6    -22.8411044 -0.403580E-08  0.678E-04    3.41      38.1  T
   7    -22.8411044 -0.456659E-09  0.206E-04    3.41     125.1  T
     SCC iter.                  ...        0 min,  0.101 sec
     gradient                   ...        0 min,  0.001 sec
 * total energy  :   -22.5548638 Eh     change       -0.2498987E-03 Eh
   gradient norm :     0.0070846 Eh/α   predicted    -0.2272403E-03 (  -9.07%)
   displ. norm   :     0.3650640 α      lambda       -0.1591764E-03
   maximum displ.:     0.3084828 α      in ANC's #2, #1, #4, ...

........................................................................
.............................. CYCLE   18 ..............................
........................................................................

 iter      E             dE          RMSdq      gap      omega  full diag
   1    -22.8373695 -0.228374E+02  0.199E-01    3.38       0.0  T
   2    -22.8373740 -0.451488E-05  0.115E-01    3.38       1.0  T
   3    -22.8373751 -0.115944E-05  0.876E-03    3.37       2.9  T
   4    -22.8373756 -0.450385E-06  0.435E-03    3.37       5.9  T
   5    -22.8373756 -0.254035E-07  0.166E-03    3.37      15.5  T
   6    -22.8373756 -0.932025E-08  0.546E-04    3.37      47.3  T
   7    -22.8373756 -0.105157E-08  0.275E-04    3.37      93.7  T
     SCC iter.                  ...        0 min,  0.112 sec
     gradient                   ...        0 min,  0.002 sec
 * total energy  :   -22.5549190 Eh     change       -0.5526522E-04 Eh
   gradient norm :     0.0120644 Eh/α   predicted    -0.9019325E-04 (  63.20%)
   displ. norm   :     0.1169779 α      lambda       -0.2041145E-03
   maximum displ.:     0.0966788 α      in ANC's #2, #3, #5, ...

........................................................................
.............................. CYCLE   19 ..............................
........................................................................

 iter      E             dE          RMSdq      gap      omega  full diag
   1    -22.8419128 -0.228419E+02  0.841E-02    3.39       0.0  T
   2    -22.8419148 -0.194381E-05  0.479E-02    3.39       1.0  T
   3    -22.8419150 -0.175956E-06  0.678E-03    3.39       3.8  T
   4    -22.8419152 -0.237953E-06  0.259E-03    3.39      10.0  T
   5    -22.8419152 -0.282276E-07  0.121E-03    3.39      21.4  T
   6    -22.8419152 -0.182997E-08  0.261E-04    3.39      98.9  T
   7    -22.8419152 -0.206647E-09  0.921E-05    3.39     280.4  T
     SCC iter.                  ...        0 min,  0.099 sec
     gradient                   ...        0 min,  0.001 sec
 * total energy  :   -22.5549930 Eh     change       -0.7401052E-04 Eh
   gradient norm :     0.0087597 Eh/α   predicted    -0.1034546E-03 (  39.78%)
   displ. norm   :     0.1075712 α      lambda       -0.1413493E-03
   maximum displ.:     0.0867204 α      in ANC's #2, #1, #25, ...

........................................................................
.............................. CYCLE   20 ..............................
........................................................................

 iter      E             dE          RMSdq      gap      omega  full diag
   1    -22.8418348 -0.228418E+02  0.627E-02    3.40       0.0  T
   2    -22.8418361 -0.128367E-05  0.363E-02    3.40       1.0  T
   3    -22.8418362 -0.122716E-06  0.528E-03    3.40       4.9  T
   4    -22.8418364 -0.164649E-06  0.204E-03    3.40      12.6  T
   5    -22.8418364 -0.777918E-08  0.849E-04    3.40      30.4  T
   6    -22.8418364 -0.159870E-08  0.230E-04    3.40     112.3  T
     SCC iter.                  ...        0 min,  0.101 sec
     gradient                   ...        0 min,  0.001 sec
 * total energy  :   -22.5550847 Eh     change       -0.9162672E-04 Eh
   gradient norm :     0.0049504 Eh/α   predicted    -0.7149403E-04 ( -21.97%)
   displ. norm   :     0.2579710 α      lambda       -0.1234249E-03
   maximum displ.:     0.2059383 α      in ANC's #2, #1, #4, ...
 * RMSD in coord.:     0.7191736 α      energy gain  -0.6425663E-02 Eh

generating ANC from model Hessian ...
Using Lindh-Hessian (1995)
 Shifting diagonal of input Hessian by   7.593623015349167E-003
 Lowest  eigenvalues of input Hessian
    0.000000    0.000000    0.000000    0.000000    0.000000    0.000000
    0.010000    0.011112    0.014717    0.020895    0.022696    0.025511
    0.037217    0.051876    0.054708    0.059705    0.068782    0.076484
 Highest eigenvalues
    1.200882    1.379978    1.462033    1.905843    2.275029    2.330786
 

........................................................................
.............................. CYCLE   21 ..............................
........................................................................

 iter      E             dE          RMSdq      gap      omega  full diag
   1    -22.8400188 -0.228400E+02  0.139E-01    3.39       0.0  T
   2    -22.8400207 -0.189893E-05  0.808E-02    3.39       1.0  T
   3    -22.8400213 -0.634526E-06  0.506E-03    3.39       5.1  T
   4    -22.8400214 -0.527691E-07  0.284E-03    3.39       9.1  T
   5    -22.8400214 -0.666538E-08  0.123E-03    3.39      21.0  T
   6    -22.8400214 -0.793834E-08  0.321E-04    3.39      80.5  T
   7    -22.8400214 -0.135419E-09  0.165E-04    3.39     156.3  T
     SCC iter.                  ...        0 min,  0.108 sec
     gradient                   ...        0 min,  0.001 sec
 * total energy  :   -22.5551700 Eh     change       -0.8537126E-04 Eh
   gradient norm :     0.0074150 Eh/α   predicted     0.0000000E+00 (-100.00%)
   displ. norm   :     0.0367309 α      lambda       -0.1105626E-03
   maximum displ.:     0.0220239 α      in ANC's #2, #6, #4, ...

........................................................................
.............................. CYCLE   22 ..............................
........................................................................

 iter      E             dE          RMSdq      gap      omega  full diag
   1    -22.8428549 -0.228429E+02  0.362E-02    3.41       0.0  T
   2    -22.8428553 -0.451134E-06  0.210E-02    3.41       1.2  T
   3    -22.8428553 -0.936333E-08  0.281E-03    3.41       9.2  T
   4    -22.8428554 -0.466925E-07  0.941E-04    3.41      27.4  T
   5    -22.8428554 -0.305444E-08  0.515E-04    3.41      50.1  T
     SCC iter.                  ...        0 min,  0.103 sec
     gradient                   ...        0 min,  0.002 sec
 * total energy  :   -22.5552407 Eh     change       -0.7062587E-04 Eh
   gradient norm :     0.0022777 Eh/α   predicted    -0.5535665E-04 ( -21.62%)
   displ. norm   :     0.0489616 α      lambda       -0.3728436E-04
   maximum displ.:     0.0395361 α      in ANC's #2, #6, #4, ...

........................................................................
.............................. CYCLE   23 ..............................
........................................................................

 iter      E             dE          RMSdq      gap      omega  full diag
   1    -22.8440187 -0.228440E+02  0.351E-02    3.41       0.0  T
   2    -22.8440190 -0.257444E-06  0.205E-02    3.41       1.3  T
   3    -22.8440190 -0.201116E-07  0.177E-03    3.41      14.6  T
   4    -22.8440190 -0.885273E-08  0.748E-04    3.41      34.5  T
   5    -22.8440190 -0.260306E-08  0.425E-04    3.41      60.8  T
     SCC iter.                  ...        0 min,  0.117 sec
     gradient                   ...        0 min,  0.001 sec
 * total energy  :   -22.5552668 Eh     change       -0.2615012E-04 Eh
   gradient norm :     0.0013037 Eh/α   predicted    -0.1868847E-04 ( -28.53%)
   displ. norm   :     0.1142876 α      lambda       -0.3193423E-04
   maximum displ.:     0.0970518 α      in ANC's #2, #6, #4, ...

........................................................................
.............................. CYCLE   24 ..............................
........................................................................

 iter      E             dE          RMSdq      gap      omega  full diag
   1    -22.8443028 -0.228443E+02  0.699E-02    3.41       0.0  T
   2    -22.8443037 -0.884273E-06  0.404E-02    3.41       1.0  T
   3    -22.8443038 -0.108455E-06  0.411E-03    3.41       6.3  T
   4    -22.8443039 -0.930939E-07  0.175E-03    3.41      14.8  T
   5    -22.8443039 -0.110907E-07  0.880E-04    3.41      29.4  T
   6    -22.8443039 -0.133624E-08  0.262E-04    3.41      98.5  T
     SCC iter.                  ...        0 min,  0.100 sec
     gradient                   ...        0 min,  0.001 sec
 * total energy  :   -22.5553030 Eh     change       -0.3619688E-04 Eh
   gradient norm :     0.0028319 Eh/α   predicted    -0.1606137E-04 ( -55.63%)
   displ. norm   :     0.0773555 α      lambda       -0.3129822E-04
   maximum displ.:     0.0665607 α      in ANC's #2, #4, #6, ...

........................................................................
.............................. CYCLE   25 ..............................
........................................................................

 iter      E             dE          RMSdq      gap      omega  full diag
   1    -22.8437575 -0.228438E+02  0.449E-02    3.41       0.0  T
   2    -22.8437576 -0.163101E-06  0.262E-02    3.41       1.0  T
   3    -22.8437577 -0.510263E-07  0.177E-03    3.41      14.6  T
   4    -22.8437577 -0.142690E-07  0.919E-04    3.41      28.1  T
   5    -22.8437577 -0.127747E-08  0.283E-04    3.41      91.2  T
     SCC iter.                  ...        0 min,  0.108 sec
     gradient                   ...        0 min,  0.002 sec
 * total energy  :   -22.5553316 Eh     change       -0.2862019E-04 Eh
   gradient norm :     0.0024894 Eh/α   predicted    -0.1574333E-04 ( -44.99%)
   displ. norm   :     0.0883748 α      lambda       -0.3598650E-04
   maximum displ.:     0.0762682 α      in ANC's #2, #4, #1, ...

........................................................................
.............................. CYCLE   26 ..............................
........................................................................

 iter      E             dE          RMSdq      gap      omega  full diag
   1    -22.8431316 -0.228431E+02  0.476E-02    3.41       0.0  T
   2    -22.8431318 -0.236030E-06  0.277E-02    3.41       1.0  T
   3    -22.8431319 -0.657211E-07  0.191E-03    3.41      13.5  T
   4    -22.8431319 -0.140365E-07  0.111E-03    3.41      23.2  T
   5    -22.8431319 -0.324725E-08  0.472E-04    3.41      54.7  T
   6    -22.8431319 -0.744436E-09  0.134E-04    3.41     192.6  T
     SCC iter.                  ...        0 min,  0.101 sec
     gradient                   ...        0 min,  0.001 sec
 * total energy  :   -22.5553629 Eh     change       -0.3132214E-04 Eh
   gradient norm :     0.0015567 Eh/α   predicted    -0.1813470E-04 ( -42.10%)
   displ. norm   :     0.1266494 α      lambda       -0.2811840E-04
   maximum displ.:     0.1097300 α      in ANC's #2, #1, #4, ...

........................................................................
.............................. CYCLE   27 ..............................
........................................................................

 iter      E             dE          RMSdq      gap      omega  full diag
   1    -22.8426657 -0.228427E+02  0.667E-02    3.41       0.0  T
   2    -22.8426662 -0.499711E-06  0.390E-02    3.40       1.0  T
   3    -22.8426662 -0.512829E-07  0.332E-03    3.41       7.8  T
   4    -22.8426663 -0.791861E-07  0.164E-03    3.40      15.7  T
   5    -22.8426663 -0.109399E-07  0.718E-04    3.40      36.0  T
   6    -22.8426663 -0.718536E-09  0.190E-04    3.40     135.8  T
     SCC iter.                  ...        0 min,  0.102 sec
     gradient                   ...        0 min,  0.001 sec
 * total energy  :   -22.5553961 Eh     change       -0.3317438E-04 Eh
   gradient norm :     0.0015701 Eh/α   predicted    -0.1415935E-04 ( -57.32%)
   displ. norm   :     0.0819073 α      lambda       -0.1475111E-04
   maximum displ.:     0.0734919 α      in ANC's #2, #4, #1, ...

........................................................................
.............................. CYCLE   28 ..............................
........................................................................

 iter      E             dE          RMSdq      gap      omega  full diag
   1    -22.8428737 -0.228429E+02  0.437E-02    3.41       0.0  T
   2    -22.8428739 -0.207704E-06  0.254E-02    3.41       1.0  T
   3    -22.8428739 -0.314763E-07  0.207E-03    3.41      12.5  T
   4    -22.8428740 -0.303363E-07  0.104E-03    3.41      24.7  T
   5    -22.8428740 -0.332765E-08  0.454E-04    3.41      56.9  T
   6    -22.8428740 -0.291813E-09  0.130E-04    3.41     198.9  T
     SCC iter.                  ...        0 min,  0.112 sec
     gradient                   ...        0 min,  0.002 sec
 * total energy  :   -22.5554155 Eh     change       -0.1936335E-04 Eh
   gradient norm :     0.0015259 Eh/α   predicted    -0.7396340E-05 ( -61.80%)
   displ. norm   :     0.0756949 α      lambda       -0.1328519E-04
   maximum displ.:     0.0699105 α      in ANC's #2, #4, #5, ...

........................................................................
.............................. CYCLE   29 ..............................
........................................................................

 iter      E             dE          RMSdq      gap      omega  full diag
   1    -22.8432751 -0.228433E+02  0.446E-02    3.41       0.0  T
   2    -22.8432752 -0.157647E-06  0.259E-02    3.41       1.0  T
   3    -22.8432753 -0.457519E-07  0.159E-03    3.41      16.3  T
   4    -22.8432753 -0.109827E-07  0.928E-04    3.41      27.8  T
   5    -22.8432753 -0.203209E-08  0.395E-04    3.41      65.3  T
     SCC iter.                  ...        0 min,  0.099 sec
     gradient                   ...        0 min,  0.001 sec
 * total energy  :   -22.5554328 Eh     change       -0.1728681E-04 Eh
   gradient norm :     0.0010064 Eh/α   predicted    -0.6659823E-05 ( -61.47%)
   displ. norm   :     0.0764028 α      lambda       -0.1172816E-04
   maximum displ.:     0.0725371 α      in ANC's #2, #4, #6, ...

........................................................................
.............................. CYCLE   30 ..............................
........................................................................

 iter      E             dE          RMSdq      gap      omega  full diag
   1    -22.8435300 -0.228435E+02  0.477E-02    3.41       0.0  T
   2    -22.8435303 -0.234281E-06  0.274E-02    3.41       1.0  T
   3    -22.8435303 -0.877952E-07  0.152E-03    3.41      17.0  T
   4    -22.8435303 -0.145577E-08  0.852E-04    3.41      30.3  T
   5    -22.8435303 -0.685425E-10  0.288E-04    3.41      89.6  T
     SCC iter.                  ...        0 min,  0.108 sec
     gradient                   ...        0 min,  0.001 sec
 * total energy  :   -22.5554479 Eh     change       -0.1513119E-04 Eh
   gradient norm :     0.0005810 Eh/α   predicted    -0.5880258E-05 ( -61.14%)
   displ. norm   :     0.0732078 α      lambda       -0.9635304E-05
   maximum displ.:     0.0682977 α      in ANC's #2, #6, #1, ...

........................................................................
.............................. CYCLE   31 ..............................
........................................................................

 iter      E             dE          RMSdq      gap      omega  full diag
   1    -22.8436288 -0.228436E+02  0.500E-02    3.41       0.0  T
   2    -22.8436290 -0.207190E-06  0.289E-02    3.41       1.0  T
   3    -22.8436291 -0.767865E-07  0.155E-03    3.41      16.7  T
   4    -22.8436291 -0.311994E-08  0.882E-04    3.41      29.3  T
   5    -22.8436291 -0.871417E-09  0.328E-04    3.41      78.7  T
     SCC iter.                  ...        0 min,  0.103 sec
     gradient                   ...        0 min,  0.001 sec
 * total energy  :   -22.5554603 Eh     change       -0.1243829E-04 Eh
   gradient norm :     0.0004858 Eh/α   predicted    -0.4829226E-05 ( -61.17%)
   displ. norm   :     0.0684814 α      lambda       -0.7641851E-05
   maximum displ.:     0.0619590 α      in ANC's #2, #1, #6, ...

........................................................................
.............................. CYCLE   32 ..............................
........................................................................

 iter      E             dE          RMSdq      gap      omega  full diag
   1    -22.8436195 -0.228436E+02  0.467E-02    3.41       0.0  T
   2    -22.8436197 -0.217938E-06  0.268E-02    3.41       1.0  T
   3    -22.8436198 -0.865281E-07  0.149E-03    3.41      17.3  T
   4    -22.8436198 -0.186551E-08  0.822E-04    3.41      31.4  T
   5    -22.8436198 -0.708283E-09  0.236E-04    3.41     109.3  T
     SCC iter.                  ...        0 min,  0.227 sec
     gradient                   ...        0 min,  0.004 sec
 * total energy  :   -22.5554703 Eh     change       -0.9941004E-05 Eh
   gradient norm :     0.0004051 Eh/α   predicted    -0.3828842E-05 ( -61.48%)
   displ. norm   :     0.0616839 α      lambda       -0.5606694E-05
   maximum displ.:     0.0543506 α      in ANC's #2, #1, #6, ...

........................................................................
.............................. CYCLE   33 ..............................
........................................................................

 iter      E             dE          RMSdq      gap      omega  full diag
   1    -22.8435793 -0.228436E+02  0.434E-02    3.41       0.0  T
   2    -22.8435795 -0.191909E-06  0.249E-02    3.41       1.0  T
   3    -22.8435796 -0.725284E-07  0.136E-03    3.41      18.9  T
   4    -22.8435796 -0.173248E-08  0.741E-04    3.41      34.9  T
   5    -22.8435796 -0.205102E-09  0.193E-04    3.41     133.9  T
     SCC iter.                  ...        0 min,  0.118 sec
     gradient                   ...        0 min,  0.001 sec
 * total energy  :   -22.5554773 Eh     change       -0.7002608E-05 Eh
   gradient norm :     0.0004667 Eh/α   predicted    -0.2807687E-05 ( -59.91%)
   displ. norm   :     0.0631199 α      lambda       -0.4333887E-05
   maximum displ.:     0.0544325 α      in ANC's #2, #1, #6, ...

........................................................................
.............................. CYCLE   34 ..............................
........................................................................

 iter      E             dE          RMSdq      gap      omega  full diag
   1    -22.8434824 -0.228435E+02  0.440E-02    3.41       0.0  T
   2    -22.8434826 -0.192184E-06  0.253E-02    3.41       1.0  T
   3    -22.8434826 -0.689108E-07  0.152E-03    3.41      16.9  T
   4    -22.8434826 -0.584726E-08  0.854E-04    3.41      30.2  T
   5    -22.8434826 -0.935774E-09  0.269E-04    3.41      96.0  T
     SCC iter.                  ...        0 min,  0.103 sec
     gradient                   ...        0 min,  0.001 sec
 * total energy  :   -22.5554821 Eh     change       -0.4871488E-05 Eh
   gradient norm :     0.0004486 Eh/α   predicted    -0.2170830E-05 ( -55.44%)
   displ. norm   :     0.0483533 α      lambda       -0.2244125E-05
   maximum displ.:     0.0420813 α      in ANC's #2, #1, #6, ...

........................................................................
.............................. CYCLE   35 ..............................
........................................................................

 iter      E             dE          RMSdq      gap      omega  full diag
   1    -22.8435193 -0.228435E+02  0.341E-02    3.41       0.0  T
   2    -22.8435194 -0.120712E-06  0.196E-02    3.41       1.3  T
   3    -22.8435195 -0.455194E-07  0.108E-03    3.41      24.0  T
   4    -22.8435195 -0.661931E-09  0.564E-04    3.41      45.8  T
   5    -22.8435195 -0.581046E-10  0.100E-04    3.41     257.5  T
     SCC iter.                  ...        0 min,  0.101 sec
     gradient                   ...        0 min,  0.003 sec
 * total energy  :   -22.5554846 Eh     change       -0.2412942E-05 Eh
   gradient norm :     0.0002981 Eh/α   predicted    -0.1124174E-05 ( -53.41%)
   displ. norm   :     0.0528997 α      lambda       -0.1427102E-05
   maximum displ.:     0.0462361 α      in ANC's #2, #1, #4, ...

........................................................................
.............................. CYCLE   36 ..............................
........................................................................

 iter      E             dE          RMSdq      gap      omega  full diag
   1    -22.8434591 -0.228435E+02  0.363E-02    3.41       0.0  T
   2    -22.8434592 -0.129491E-06  0.207E-02    3.41       1.2  T
   3    -22.8434593 -0.507351E-07  0.116E-03    3.41      22.3  T
   4    -22.8434593 -0.195739E-08  0.627E-04    3.41      41.2  T
   5    -22.8434593 -0.501704E-09  0.133E-04    3.41     194.7  T
     SCC iter.                  ...        0 min,  0.110 sec
     gradient                   ...        0 min,  0.001 sec
 * total energy  :   -22.5554858 Eh     change       -0.1190726E-05 Eh
   gradient norm :     0.0004313 Eh/α   predicted    -0.7145026E-06 ( -39.99%)
   displ. norm   :     0.0201043 α      lambda       -0.4310374E-06
   maximum displ.:     0.0181064 α      in ANC's #2, #1, #3, ...

........................................................................
.............................. CYCLE   37 ..............................
........................................................................

 iter      E             dE          RMSdq      gap      omega  full diag
   1    -22.8435774 -0.228436E+02  0.136E-02    3.41       0.0  T
   2    -22.8435775 -0.176993E-07  0.787E-03    3.41       3.3  T
   3    -22.8435775 -0.560254E-08  0.467E-04    3.41      55.3  T
   4    -22.8435775 -0.321627E-09  0.282E-04    3.41      91.4  T
     SCC iter.                  ...        0 min,  0.104 sec
     gradient                   ...        0 min,  0.001 sec
 * total energy  :   -22.5554861 Eh     change       -0.3276164E-06 Eh
   gradient norm :     0.0002833 Eh/α   predicted    -0.2146768E-06 ( -34.47%)
   displ. norm   :     0.0064545 α      lambda       -0.1667081E-06
   maximum displ.:     0.0045464 α      in ANC's #2, #4, #3, ...

........................................................................
.............................. CYCLE   38 ..............................
........................................................................

 iter      E             dE          RMSdq      gap      omega  full diag
   1    -22.8436252 -0.228436E+02  0.372E-03    3.41       0.0  T
   2    -22.8436252 -0.161137E-08  0.216E-03    3.41      12.0  T
   3    -22.8436252 -0.208470E-09  0.175E-04    3.41     147.3  T
   4    -22.8436252 -0.170722E-09  0.817E-05    3.41     316.2  T
     SCC iter.                  ...        0 min,  0.108 sec
     gradient                   ...        0 min,  0.001 sec
 * total energy  :   -22.5554863 Eh     change       -0.1988776E-06 Eh
   gradient norm :     0.0001247 Eh/α   predicted    -0.8459870E-07 ( -57.46%)
   displ. norm   :     0.0111787 α      lambda       -0.2066937E-06
   maximum displ.:     0.0058559 α      in ANC's #4, #3, #2, ...

........................................................................
.............................. CYCLE   39 ..............................
........................................................................

 iter      E             dE          RMSdq      gap      omega  full diag
   1    -22.8436627 -0.228437E+02  0.601E-03    3.41       0.0  T
   2    -22.8436627 -0.254702E-08  0.353E-03    3.41       7.3  T
   3    -22.8436627 -0.548219E-09  0.191E-04    3.41     135.2  T
   4    -22.8436627 -0.112365E-09  0.104E-04    3.41     248.3  T
     SCC iter.                  ...        0 min,  0.114 sec
     gradient                   ...        0 min,  0.002 sec
 * total energy  :   -22.5554865 Eh     change       -0.1843195E-06 Eh
   gradient norm :     0.0001249 Eh/α   predicted    -0.1035303E-06 ( -43.83%)
   displ. norm   :     0.0042498 α      lambda       -0.4367169E-07
   maximum displ.:     0.0027018 α      in ANC's #1, #3, #4, ...

........................................................................
.............................. CYCLE   40 ..............................
........................................................................

 iter      E             dE          RMSdq      gap      omega  full diag
   1    -22.8436463 -0.228436E+02  0.231E-03    3.41       0.0  T
   2    -22.8436463 -0.458375E-09  0.135E-03    3.41      19.2  T
   3    -22.8436463 -0.773603E-10  0.115E-04    3.41     225.5  T
   4    -22.8436463 -0.101910E-09  0.496E-05    3.41     520.6  T
     SCC iter.                  ...        0 min,  0.123 sec
     gradient                   ...        0 min,  0.001 sec
 * total energy  :   -22.5554865 Eh     change       -0.4702857E-07 Eh
   gradient norm :     0.0000946 Eh/α   predicted    -0.2289781E-07 ( -51.31%)
   displ. norm   :     0.0038649 α      lambda       -0.2806583E-07
   maximum displ.:     0.0027079 α      in ANC's #1, #3, #4, ...

   *** GEOMETRY OPTIMIZATION CONVERGED AFTER 40 ITERATIONS ***

------------------------------------------------------------------------
 total energy gain   :        -0.0068275 Eh       -4.2843 kcal/mol
 total RMSD          :         0.9777527 a0        0.5174 Å
 total power (kW/mol):        -0.4481413 (step)   -3.7109 (real)
------------------------------------------------------------------------

 ANCopt (total)                0 d,  0 h,  0 min,  4.831 sec
 optimizer setup                ...        0 min,  0.000 sec (  0.002%)
 model hessian                  ...        0 min,  0.006 sec (  0.120%)
 ANC generation                 ...        0 min,  0.001 sec (  0.014%)
 coordinate transformation      ...        0 min,  0.000 sec (  0.009%)
 single point calculation       ...        0 min,  4.805 sec ( 99.481%)
 optimization log               ...        0 min,  0.004 sec (  0.074%)
 hessian update                 ...        0 min,  0.007 sec (  0.145%)
 rational function              ...        0 min,  0.005 sec (  0.107%)

================
 final structure:
================
15
 xtb: 6.7.0 (08769fc)
C           -2.50525826187615       -0.18251611103230       -0.70550486168451
C           -1.79014630163722       -0.32632401319698        0.64056592806804
C           -0.35884984469800        0.16362852325272        0.53737439821317
O            0.01694999677179        1.22583131487207        0.98491090855910
N            0.46456942680624       -0.70629582419145       -0.13329838954634
C            1.81686697376626       -0.50973955886168       -0.41906814388350
N            2.55560311608899        0.45727245893482       -0.13855325150321
H           -3.53938333495049       -0.50457222115253       -0.61054388324112
H           -2.02633921520920       -0.78332491627932       -1.47599472836661
H           -2.49615272481291        0.85716462171107       -1.02556211187917
H           -1.80176383801173       -1.36916897049540        0.96456839295601
H           -2.29734484145782        0.28090317272789        1.39133406358723
H            0.05358125723380       -1.57091768991817       -0.45767206304274
H            2.24987749570318       -1.34322679238872       -0.96560153429574
H            2.10497576788336        1.21264166981797        0.37391618025953
 
 Bond Distances (Angstroems)
 ---------------------------
C1-C2=1.5310         C1-H8=1.0873         C1-H9=1.0881         C1-H10=1.0879        C2-C1=1.5310         C2-C3=1.5163         
C2-H11=1.0921        C2-H12=1.0907        C3-C2=1.5163         C3-O4=1.2123         C3-N5=1.3728         O4-C3=1.2123         
N5-C3=1.3728         N5-C6=1.3961         N5-H13=1.0108        C6-N5=1.3961         C6-N7=1.2488         C6-H14=1.0867        
N7-C6=1.2488         N7-H15=1.0180        H8-C1=1.0873         H9-C1=1.0881         H10-C1=1.0879        H11-C2=1.0921        
H12-C2=1.0907        H13-N5=1.0108        H14-C6=1.0867        H15-N7=1.0180        
 C  H  Rav=1.0888 sigma=0.0019  Rmin=1.0867  Rmax=1.0921     6
 C  C  Rav=1.5237 sigma=0.0073  Rmin=1.5163  Rmax=1.5310     2
 N  H  Rav=1.0144 sigma=0.0036  Rmin=1.0108  Rmax=1.0180     2
 N  C  Rav=1.3392 sigma=0.0646  Rmin=1.2488  Rmax=1.3961     3
 O  C  Rav=1.2123 sigma=0.0000  Rmin=1.2123  Rmax=1.2123     1
 
 selected bond angles (degree)
 --------------------
H8-C1-C2=109.86                H9-C1-C2=111.41                H9-C1-H8=108.48                H10-C1-C2=110.15               
H10-C1-H8=108.47               H10-C1-H9=108.40               C3-C2-C1=110.53                H11-C2-C1=110.22               
H11-C2-C3=109.80               H12-C2-C1=109.61               H12-C2-C3=107.81               H12-C2-H11=108.81              
O4-C3-C2=123.41                N5-C3-C2=113.24                N5-C3-O4=123.34                C6-N5-C3=126.28                
H13-N5-C3=117.06               H13-N5-C6=116.65               N7-C6-N5=129.50                H14-C6-N5=112.39               
H14-C6-N7=118.11               H15-N7-C6=115.20               
 
 selected dihedral angles (degree)
 ---------------------------------
C3-C2-C1-H8=181.94            C3-C2-C1-H9= 61.70            C3-C2-C1-H10=301.36           H11-C2-C1-H8= 60.38           
H11-C2-C1-H9=300.14           H11-C2-C1-H10=179.80          H12-C2-C1-H8=300.64           H12-C2-C1-H9=180.40           
H12-C2-C1-H10= 60.06          O4-C3-C2-C1=104.37            O4-C3-C2-H11=226.17           O4-C3-C2-H12=344.58           
N5-C3-C2-C1=285.38            N5-C3-C2-H11= 47.19           N5-C3-C2-H12=165.59           C6-N5-C3-C2=177.94            
C6-N5-C3-O4=358.96            H13-N5-C3-C2=358.34           H13-N5-C3-O4=179.36           N7-C6-N5-C3=  0.27            
N7-C6-N5-H13=179.87           H14-C6-N5-C3=180.25           H14-C6-N5-H13=359.85          H15-N7-C6-N5=  0.00           
H15-N7-C6-H14=180.03          
           -------------------------------------------------
          |                Final Singlepoint                |
           -------------------------------------------------

          ...................................................
          :                      SETUP                      :
          :.................................................:
          :  # basis functions                  36          :
          :  # atomic orbitals                  36          :
          :  # shells                           22          :
          :  # electrons                        40          :
          :  max. iterations                  4000          :
          :  Hamiltonian                  GFN2-xTB          :
          :  restarted?                      false          :
          :  GBSA solvation                   true          :
          :  PC potential                    false          :
          :  electronic temp.          300.0000000     K    :
          :  accuracy                    1.0000000          :
          :  -> integral cutoff          0.2500000E+02      :
          :  -> integral neglect         0.1000000E-07      :
          :  -> SCF convergence          0.1000000E-05 Eh   :
          :  -> wf. convergence          0.1000000E-03 e    :
          :  Broyden damping             0.4000000          :
          :  net charge                          0          :
          :  unpaired electrons                  0          :
          ...................................................

 iter      E             dE          RMSdq      gap      omega  full diag
   1    -22.8436463 -0.228436E+02  0.181E-05    3.41       0.0  T
   2    -22.8436463 -0.838440E-12  0.108E-05    3.41    2399.3  T
   3    -22.8436463 -0.309086E-12  0.703E-06    3.41    3670.8  T

   *** convergence criteria satisfied after 3 iterations ***

         #    Occupation            Energy/Eh            Energy/eV
      -------------------------------------------------------------
         1        2.0000           -0.7226125             -19.6633
       ...           ...                  ...                  ...
        14        2.0000           -0.4882277             -13.2854
        15        2.0000           -0.4799750             -13.0608
        16        2.0000           -0.4736416             -12.8884
        17        2.0000           -0.4585644             -12.4782
        18        2.0000           -0.4255006             -11.5785
        19        2.0000           -0.4202656             -11.4360
        20        2.0000           -0.3844676             -10.4619 (HOMO)
        21                         -0.2591432              -7.0516 (LUMO)
        22                         -0.1949884              -5.3059
        23                          0.0070777               0.1926
        24                          0.0649271               1.7668
        25                          0.1032283               2.8090
       ...                                ...                  ...
        36                          0.6375137              17.3476
      -------------------------------------------------------------
                  HL-Gap            0.1253245 Eh            3.4103 eV
             Fermi-level           -0.3218054 Eh           -8.7568 eV

 SCC (total)                   0 d,  0 h,  0 min,  0.117 sec
 SCC setup                      ...        0 min,  0.000 sec (  0.149%)
 Dispersion                     ...        0 min,  0.000 sec (  0.037%)
 classical contributions        ...        0 min,  0.000 sec (  0.009%)
 integral evaluation            ...        0 min,  0.000 sec (  0.353%)
 iterations                     ...        0 min,  0.115 sec ( 98.237%)
 molecular gradient             ...        0 min,  0.001 sec (  1.089%)
 printout                       ...        0 min,  0.000 sec (  0.091%)

         :::::::::::::::::::::::::::::::::::::::::::::::::::::
         ::                     SUMMARY                     ::
         :::::::::::::::::::::::::::::::::::::::::::::::::::::
         :: total energy             -22.555486510882 Eh    ::
         :: total w/o Gsasa/hb       -22.546698752944 Eh    ::
         :: gradient norm              0.000094816986 Eh/a0 ::
         :: HOMO-LUMO gap              3.410252020996 eV    ::
         ::.................................................::
         :: SCC energy               -22.843630434597 Eh    ::
         :: -> isotropic ES            0.052561492253 Eh    ::
         :: -> anisotropic ES          0.002838735301 Eh    ::
         :: -> anisotropic XC          0.014008850451 Eh    ::
         :: -> dispersion             -0.008870579561 Eh    ::
         :: -> Gsolv                  -0.013564976829 Eh    ::
         ::    -> Gelec               -0.004777218891 Eh    ::
         ::    -> Gsasa               -0.010995901077 Eh    ::
         ::    -> Ghb                  0.000000000000 Eh    ::
         ::    -> Gshift               0.002208143139 Eh    ::
         :: repulsion energy           0.288143923714 Eh    ::
         :: add. restraining           0.000000000000 Eh    ::
         :: total charge              -0.000000000000 e     ::
         :::::::::::::::::::::::::::::::::::::::::::::::::::::

           -------------------------------------------------
          |                Property Printout                |
           -------------------------------------------------

    * Orbital Energies and Occupations

         #    Occupation            Energy/Eh            Energy/eV
      -------------------------------------------------------------
         1        2.0000           -0.7226125             -19.6633
       ...           ...                  ...                  ...
         8        2.0000           -0.5712310             -15.5440
         9        2.0000           -0.5592653             -15.2184
        10        2.0000           -0.5440398             -14.8041
        11        2.0000           -0.5197350             -14.1427
        12        2.0000           -0.5158485             -14.0370
        13        2.0000           -0.5020023             -13.6602
        14        2.0000           -0.4882277             -13.2854
        15        2.0000           -0.4799750             -13.0608
        16        2.0000           -0.4736416             -12.8884
        17        2.0000           -0.4585644             -12.4782
        18        2.0000           -0.4255006             -11.5785
        19        2.0000           -0.4202656             -11.4360
        20        2.0000           -0.3844676             -10.4619 (HOMO)
        21                         -0.2591432              -7.0516 (LUMO)
        22                         -0.1949884              -5.3059
        23                          0.0070777               0.1926
        24                          0.0649271               1.7668
        25                          0.1032283               2.8090
        26                          0.1187373               3.2310
        27                          0.1298084               3.5323
        28                          0.1627139               4.4277
        29                          0.1675654               4.5597
        30                          0.1869947               5.0884
        31                          0.2372625               6.4562
       ...                                ...                  ...
        36                          0.6375137              17.3476
      -------------------------------------------------------------
                  HL-Gap            0.1253245 Eh            3.4103 eV
             Fermi-level           -0.3218054 Eh           -8.7568 eV

     #   Z          covCN         q      C6AA      α(0)
     1   6 C        3.753    -0.102    22.513     6.766
     2   6 C        3.804    -0.089    22.203     6.708
     3   6 C        2.751     0.288    22.117     7.701
     4   8 O        0.858    -0.427    22.233     6.322
     5   7 N        2.688    -0.171    24.708     7.382
     6   6 C        2.751     0.145    24.831     8.160
     7   7 N        1.773    -0.331    29.403     8.030
     8   1 H        0.925     0.055     2.253     2.347
     9   1 H        0.925     0.044     2.402     2.424
    10   1 H        0.925     0.047     2.359     2.402
    11   1 H        0.924     0.055     2.264     2.353
    12   1 H        0.924     0.065     2.140     2.288
    13   1 H        0.860     0.197     1.121     1.658
    14   1 H        0.925     0.053     2.281     2.362
    15   1 H        0.860     0.173     1.257     1.756

 Mol. C6AA /au·bohr⁶  :       2060.796868
 Mol. C8AA /au·bohr⁸  :      44775.792246
 Mol. α(0) /au        :         68.658681


Wiberg/Mayer (AO) data.
largest (>0.10) Wiberg bond orders for each atom

 ---------------------------------------------------------------------------
     #   Z sym  total        # sym  WBO       # sym  WBO       # sym  WBO
 ---------------------------------------------------------------------------
     1   6 C    3.992 --     2 C    0.998    10 H    0.988     9 H    0.986
                             8 H    0.984
     2   6 C    3.995 --     1 C    0.998    12 H    0.974     3 C    0.973
                            11 H    0.966
     3   6 C    3.937 --     4 O    1.722     5 N    1.177     2 C    0.973
     4   8 O    2.028 --     3 C    1.722     5 N    0.149
     5   7 N    3.511 --     3 C    1.177     6 C    1.090    13 H    0.932
                             4 O    0.149     7 N    0.126
     6   6 C    3.961 --     7 N    1.897     5 N    1.090    14 H    0.948
     7   7 N    3.042 --     6 C    1.897    15 H    0.929     5 N    0.126
     8   1 H    0.997 --     1 C    0.984
     9   1 H    0.998 --     1 C    0.986
    10   1 H    0.998 --     1 C    0.988
    11   1 H    0.997 --     2 C    0.966
    12   1 H    0.996 --     2 C    0.974
    13   1 H    0.961 --     5 N    0.932
    14   1 H    0.997 --     6 C    0.948
    15   1 H    0.970 --     7 N    0.929
 ---------------------------------------------------------------------------

Topologies differ in total number of bonds
Writing topology from bond orders to xtbtopo.mol

molecular dipole:
                 x           y           z       tot (Debye)
 q only:       -0.969      -1.480      -0.611
   full:       -1.448      -1.774      -0.609       6.023
molecular quadrupole (traceless):
                xx          xy          yy          xz          yz          zz
 q only:       -0.165      -0.888       0.620      -0.217      -0.968      -0.456
  q+dip:       -4.264      -1.851       3.661      -0.275      -0.408       0.603
   full:       -4.715      -2.098       3.042       0.341      -1.308       1.674

           -------------------------------------------------
          |                Geometry Summary                 |
           -------------------------------------------------

      molecular mass/u    :      100.1192809
   center of mass at/Å    :        0.0067982       0.0260680       0.1075850
  moments of inertia/u·Å² :        0.8641890E+02   0.3100446E+03   0.3602126E+03
rotational constants/cm⁻¹ :        0.1950688E+00   0.5437164E-01   0.4679912E-01

 * 12 selected distances

     #   Z          #   Z                                           value/Å
     1   6 C        2   6 C                                       1.5310039 (max)
     3   6 C        4   8 O                                       1.2123488
     3   6 C        5   7 N                                       1.3728037
     5   7 N        6   6 C                                       1.3960687
     6   6 C        7   7 N                                       1.2488123
     1   6 C        8   1 H                                       1.0872684
     1   6 C        9   1 H                                       1.0881128
     1   6 C       10   1 H                                       1.0878675
     2   6 C       11   1 H                                       1.0920798
     2   6 C       12   1 H                                       1.0907008
     5   7 N       13   1 H                                       1.0107921 (min)
     6   6 C       14   1 H                                       1.0866913

 * 5 distinct bonds (by element types)

   Z      Z             #   av. dist./Å        max./Å        min./Å
   1 H    6 C           6     1.0887868     1.0920798     1.0866913
   6 C    6 C           1     1.5310039     1.5310039     1.5310039
   1 H    7 N           1     1.0107921     1.0107921     1.0107921
   6 C    7 N           3     1.3392282     1.3960687     1.2488123
   6 C    8 O           1     1.2123488     1.2123488     1.2123488


optimized geometry written to: xtbopt.xyz


           -------------------------------------------------
          | TOTAL ENERGY              -22.555486510882 Eh   |
          | GRADIENT NORM               0.000094816986 Eh/α |
          | HOMO-LUMO GAP               3.410252020996 eV   |
           -------------------------------------------------

------------------------------------------------------------------------
 * finished run on 2024/08/07 at 19:54:17.646     
------------------------------------------------------------------------
 total:
 * wall-time:     0 d,  0 h,  0 min,  5.073 sec
 *  cpu-time:     0 d,  0 h,  0 min, 36.917 sec
 * ratio c/w:     7.277 speedup
 SCF:
 * wall-time:     0 d,  0 h,  0 min,  0.112 sec
 *  cpu-time:     0 d,  0 h,  0 min,  0.861 sec
 * ratio c/w:     7.697 speedup
 ANC optimizer:
 * wall-time:     0 d,  0 h,  0 min,  4.949 sec
 *  cpu-time:     0 d,  0 h,  0 min, 35.973 sec
 * ratio c/w:     7.269 speedup

