15
 energy: -22.548658990994 gnorm: 0.061667188946 xtb: 6.7.0 (08769fc)
C           -2.68315879710000        0.09512725660000       -0.59803348170000
C           -1.74511536200000       -0.47092366320000        0.45097584640000
C           -0.34007178350000        0.01824792620000        0.24634603570000
O           -0.13012525890000        1.21117967510000        0.25995752930000
N            0.65661025880000       -0.92143286890000        0.04342886280000
C            1.99233913990000       -0.60176954410000       -0.17146418300000
N            2.42886743980000        0.57686721410000       -0.20156915370000
H           -3.71494518760000       -0.22828028420000       -0.44770913570000
H           -2.37861881230000       -0.21084893290000       -1.59987451200000
H           -2.66613649910000        1.18602382120000       -0.57827187360000
H           -1.76243737990000       -1.56593588920000        0.43808278510000
H           -2.06988149030000       -0.17519125140000        1.45479789030000
H            0.39870862100000       -1.90396513120000        0.04627684880000
H            2.69866602430000       -1.40263418040000       -0.32239050750000
H            1.76248475850000        1.29489151610000       -0.05968204700000
15
 energy: -22.552879914510 gnorm: 0.023813340068 xtb: 6.7.0 (08769fc)
C           -2.68053010001560        0.08580410624927       -0.60183000133732
C           -1.74834965473029       -0.50226136350893        0.44901897099276
C           -0.35220480136636        0.04125523060411        0.24940914657624
O           -0.14290016701313        1.23849235530736        0.26684152961778
N            0.63770579436770       -0.89372643437028        0.04608883371905
C            1.98255513936760       -0.58493686972861       -0.16906434089652
N            2.48311155557583        0.56473048123859       -0.20946917003433
H           -3.70484089258825       -0.24167978691869       -0.43413582446277
H           -2.37765336745944       -0.22278972584200       -1.60216286298294
H           -2.65541527774557        1.17482960256484       -0.56380004813916
H           -1.76881981154082       -1.59658200582586        0.42122795270754
H           -2.07502327495872       -0.18576050759753        1.44481345852538
H            0.37370596248418       -1.87195810224650        0.04828562457472
H            2.64630684917758       -1.42836732722868       -0.31473721573995
H            1.82953771804529        1.32430601110289       -0.06961514892048
15
 energy: -22.553979937326 gnorm: 0.008830567975 xtb: 6.7.0 (08769fc)
C           -2.68941445408414        0.07392744402963       -0.60505340609412
C           -1.74979750908810       -0.51283903489674        0.44878827207382
C           -0.35793031897206        0.06155052157462        0.25787060044337
O           -0.14739180450376        1.25734801027716        0.28103686391795
N            0.62674521922317       -0.86864838402783        0.04833013620162
C            1.97646193428180       -0.57125812322900       -0.16795746867976
N            2.53024482704475        0.55154148251698       -0.21554843437419
H           -3.70958011266232       -0.25788419158607       -0.43092895601499
H           -2.38497151546478       -0.23460850139054       -1.60330937077217
H           -2.65908305930308        1.16019129468591       -0.55711745471581
H           -1.75450664964430       -1.60308029284824        0.40341769102904
H           -2.08751199718914       -0.19967625991939        1.44037616281250
H            0.35935444673389       -1.84339311385639        0.04702233232191
H            2.59838811025263       -1.45384004503788       -0.30970907314357
H            1.89617855497547        1.34202485750779       -0.07634699080560
15
 energy: -22.554153982260 gnorm: 0.006175880699 xtb: 6.7.0 (08769fc)
C           -2.69520699171452        0.06966415947369       -0.60602112244276
C           -1.75049507037878       -0.51137210581368        0.44868819298041
C           -0.36042284473395        0.07120032155426        0.26046558137989
O           -0.14910149815253        1.26587089109231        0.29098886685881
N            0.62502663137944       -0.85762510744771        0.04784193993668
C            1.97630085563699       -0.56759588249776       -0.16682709003301
N            2.54814099918481        0.54315902703757       -0.21647784202508
H           -3.71312588716208       -0.26637105473393       -0.42808605547699
H           -2.39183258021442       -0.24178272252658       -1.60336619374637
H           -2.66809600645105        1.15550295263009       -0.56078890300236
H           -1.74265304531869       -1.60038250469686        0.39654258091936
H           -2.09524236664702       -0.20714061695119        1.44002962948275
H            0.35752734765307       -1.83184705768863        0.04301490572970
H            2.58004925974460       -1.46293076163350       -0.30789736796860
H            1.92631686877415        1.34300612600193       -0.07723621839244
15
 energy: -22.554233012386 gnorm: 0.003649967183 xtb: 6.7.0 (08769fc)
C           -2.70007521039525        0.06542780152570       -0.60698574906872
C           -1.75091795734377       -0.50741749511362        0.44826146406783
C           -0.36255114126844        0.07998812696971        0.26492885926398
O           -0.15018862350354        1.27371837198404        0.30151838548025
N            0.62401286140023       -0.84836950040703        0.04653890972036
C            1.97654797057822       -0.56681754183349       -0.16754031701708
N            2.56125051190161        0.53543934057610       -0.21543545201723
H           -3.71614506425812       -0.27464566954443       -0.42493924601244
H           -2.39854719672246       -0.24999485546161       -1.60369283856124
H           -2.67853992172261        1.15160305393807       -0.56768566925637
H           -1.73241513275712       -1.59610488544916        0.39265694187305
H           -2.10156669884749       -0.21186586370559        1.43987941482608
H            0.35631294905569       -1.82258780011836        0.03698170262350
H            2.56678598116700       -1.46950988529533       -0.30831067659074
H            1.95322234431607        1.34249246573501       -0.07530482513123
15
 energy: -22.554255469273 gnorm: 0.001586808127 xtb: 6.7.0 (08769fc)
C           -2.70220199607490        0.06229437020321       -0.60749646366231
C           -1.75099715582769       -0.50476673752353        0.44808191871951
C           -0.36416059617698        0.08489715976335        0.26603841903035
O           -0.15053248766096        1.27804539501639        0.30787947219061
N            0.62281644713952       -0.84352839749019        0.04455020033456
C            1.97655079282101       -0.56777766366818       -0.16738625605948
N            2.56714788568094        0.53131342738698       -0.21256119418373
H           -3.71732781730534       -0.27961532293361       -0.42263735156955
H           -2.40199678911523       -0.25626405338411       -1.60373078660057
H           -2.68431481698073        1.14893294867737       -0.57319025084380
H           -1.72838664419292       -1.59362608521258        0.39321317296453
H           -2.10338729197279       -0.21165090074418        1.43982772993698
H            0.35425220217886       -1.81766149492325        0.03087966187338
H            2.56118041975753       -1.47255317351269       -0.31082433059024
H            1.96854351932970        1.34331619214504       -0.07177303734024
15
 energy: -22.554265988768 gnorm: 0.001275699370 xtb: 6.7.0 (08769fc)
C           -2.70322970813938        0.05818720713480       -0.60841043497650
C           -1.75112832911477       -0.50226166348274        0.44886896074613
C           -0.36551584704674        0.08880956119395        0.26789616671174
O           -0.15076506003130        1.28141621147581        0.31382115689295
N            0.62089595745675       -0.83963734052883        0.04073977059150
C            1.97571277648075       -0.56923390479337       -0.16957489524779
N            2.57103434822095        0.52778611069500       -0.20778362345582
H           -3.71784759234419       -0.28421460554918       -0.42128002676700
H           -2.40363157655872       -0.26455196398111       -1.60358633678229
H           -2.68797131945616        1.14529360452582       -0.57996640641813
H           -1.72717053487576       -1.59150508315875        0.39858823602720
H           -2.10423401113920       -0.20643925128670        1.43973749163163
H            0.35057916041812       -1.81338266699588        0.02174351622483
H            2.55780813248413       -1.47435966571526       -0.31627603156672
H            1.98264927524555        1.34544911426647       -0.06364663941172
15
 energy: -22.554271285400 gnorm: 0.000949526458 xtb: 6.7.0 (08769fc)
C           -2.70235550283315        0.05696726034192       -0.60893473373138
C           -1.75134896980722       -0.50184095298455        0.45038867011932
C           -0.36552952282652        0.08833886432984        0.26719930855504
O           -0.15046687135919        1.28088735510560        0.31484340639458
N            0.62010151179042       -0.84014038651219        0.03840783029913
C            1.97518449783801       -0.56929645729141       -0.16986446352717
N            2.57016976769786        0.52794328996942       -0.20499676837492
H           -3.71722064879237       -0.28457354341638       -0.42197337441851
H           -2.40192046097168       -0.26764003929723       -1.60321973889827
H           -2.68636585828415        1.14405399872719       -0.58216575091847
H           -1.72896615377522       -1.59124897864246        0.40387610534551
H           -2.10405417945031       -0.20138082833657        1.44013985084688
H            0.34879176172761       -1.81352805556240        0.01721636963923
H            2.55852657337636       -1.47337257255540       -0.32056559022941
H            1.98263972726957        1.34618670992464       -0.05948021690157
15
 energy: -22.554277748365 gnorm: 0.000601867805 xtb: 6.7.0 (08769fc)
C           -2.70046564367846        0.05491606182209       -0.61014451206113
C           -1.75184754614822       -0.50077219628043        0.45369057095674
C           -0.36496231473469        0.08731647408525        0.26851006812160
O           -0.14948284206981        1.27979075785945        0.31771865544103
N            0.61868867585872       -0.84123057651032        0.03397493888776
C            1.97369709259514       -0.56874151059712       -0.17311119371511
N            2.56883568699370        0.52853042355442       -0.20160404954913
H           -3.71584776818308       -0.28547364868387       -0.42437956270990
H           -2.39769557454634       -0.27282080671685       -1.60261270151915
H           -2.68349420466605        1.14195075562260       -0.58603562702918
H           -1.73164022984515       -1.59043024581822        0.41351519809613
H           -2.10517804775750       -0.19272541492824        1.44092482688035
H            0.34590649570247       -1.81402699958933        0.00953883898157
H            2.55900260020931       -1.47170945965222       -0.32683768696347
H            1.98166929187000        1.34678204963279       -0.05227685961811
15
 energy: -22.554284318561 gnorm: 0.000873285408 xtb: 6.7.0 (08769fc)
C           -2.69859856625731        0.05234320553751       -0.61154483928346
C           -1.75235155924587       -0.49877923466634        0.45718005498102
C           -0.36479105713712        0.08777448076376        0.27046997557402
O           -0.14806510493095        1.27992895138815        0.32419353352043
N            0.61698856614322       -0.84096803688362        0.02962077388927
C            1.97228973013054       -0.56821870349574       -0.17523148219070
N            2.56891885598689        0.52821904528086       -0.19873406193535
H           -3.71421640031704       -0.28793243808579       -0.42686543539129
H           -2.39320294319054       -0.27902756028843       -1.60197772212351
H           -2.68215370234740        1.13945952255593       -0.59125665433677
H           -1.73265050674854       -1.58865588452329        0.42262320205011
H           -2.10746542332936       -0.18515031170140        1.44187764289821
H            0.34278679885663       -1.81323947465963        0.00096300211957
H            2.55687134906411       -1.47108300445171       -0.33396289381214
H            1.98282563492275        1.34668510702975       -0.04648419175941
15
 energy: -22.554295415087 gnorm: 0.001243841112 xtb: 6.7.0 (08769fc)
C           -2.69536752179826        0.04853423289379       -0.61371980216605
C           -1.75301113076139       -0.49558199695433        0.46225676269135
C           -0.36467934153832        0.08918085727300        0.27507254382546
O           -0.14563201655908        1.28063011230576        0.33632058467976
N            0.61435226104833       -0.83979019841883        0.02399837864567
C            1.96998208704728       -0.56765268445217       -0.17929010876549
N            2.56892436276170        0.52748818715466       -0.19663472590131
H           -3.71127840032786       -0.29219494021147       -0.43135100008328
H           -2.38547142588726       -0.28771291966233       -1.60110925298554
H           -2.68068015202782        1.13579789116208       -0.59909198901265
H           -1.73328723845614       -1.58572660339856        0.43500680636767
H           -2.11161654466824       -0.17524735295224        1.44329623250992
H            0.33834617477558       -1.81135056954836       -0.01059524920322
H            2.55253859797807       -1.47082155273566       -0.34388813482885
H            1.98406596001343        1.34580320134467       -0.03940014157342
15
 energy: -22.552907348673 gnorm: 0.037818476877 xtb: 6.7.0 (08769fc)
C           -2.62517161846216       -0.03426954901092       -0.66129515746924
C           -1.76712824448756       -0.42704049152393        0.57108283606659
C           -0.36270281517660        0.12042319643164        0.37735591502320
O           -0.09334106235165        1.29624694412660        0.60000200613914
N            0.55720716818464       -0.81292324123012       -0.09380226596292
C            1.91973464682250       -0.55672852259991       -0.26900133776384
N            2.56835186158298        0.51136824032785       -0.15288393284384
H           -3.64752870992059       -0.38466143966233       -0.52940475465908
H           -2.21778959470208       -0.47571520851405       -1.58284738417798
H           -2.64818120829794        1.05607959285018       -0.76898360172725
H           -1.74717371644737       -1.52277129310543        0.70163642779424
H           -2.20133174099202        0.03867557188955        1.47343787099471
H            0.24159543286350       -1.76892889388885       -0.25682556380430
H            2.45866482858828       -1.46610989062152       -0.56272875307413
H            2.01198044439614        1.32771064833123        0.11512859966474
15
 energy: -22.554382026495 gnorm: 0.011407299896 xtb: 6.7.0 (08769fc)
C           -2.64371162152123       -0.00878882056711       -0.64474920556981
C           -1.76244632503428       -0.44828788721245        0.53567707671936
C           -0.36343726545343        0.10983571944031        0.34565317819593
O           -0.10962704477308        1.28714366914079        0.50862488103720
N            0.57385151129076       -0.81905036442216       -0.05083219523700
C            1.93319273521928       -0.55876255447797       -0.24030473778565
N            2.56498394496406        0.51520508256984       -0.16942631062280
H           -3.66331107051763       -0.35776350650926       -0.49928452477388
H           -2.26528442111342       -0.41315117075917       -1.58461652866189
H           -2.65232964293996        1.07846520787171       -0.71219789564195
H           -1.74522530115549       -1.53914394291257        0.61500514639005
H           -2.17275873861673       -0.03204091554265        1.45991323508493
H            0.26979404936338       -1.77735421644930       -0.17244734967222
H            2.48385881250463       -1.46367649266384       -0.50034995965147
H            1.99963604938320        1.32872585629382        0.07020609438924
15
 energy: -22.554483809787 gnorm: 0.007644541976 xtb: 6.7.0 (08769fc)
C           -2.64502265359868       -0.00940111348601       -0.64280565622172
C           -1.76186107957666       -0.44884680500556        0.53135029098132
C           -0.36398857761587        0.11124024764550        0.34127462421595
O           -0.10817455679687        1.28689260705872        0.50575058782167
N            0.57282107162087       -0.81579443511237       -0.04794064425961
C            1.93227065597140       -0.55867651505170       -0.24138776160780
N            2.56732583618521        0.51293495678003       -0.16811468951268
H           -3.66347998017799       -0.35963584629983       -0.49487036945780
H           -2.26932330853040       -0.41176897224216       -1.58193921605155
H           -2.65334412781254        1.07662886253708       -0.70979487409225
H           -1.74408816560471       -1.53768901220891        0.60745974486402
H           -2.16988269660422       -0.03651731076869        1.45500436355747
H            0.26768247955334       -1.77220093334645       -0.16638390956680
H            2.48148021058757       -1.46278140994324       -0.49687083087481
H            2.00477056399960        1.32697134324359        0.07013924440465
15
 energy: -22.554533658941 gnorm: 0.007041147675 xtb: 6.7.0 (08769fc)
C           -2.64229057698858       -0.01337765286892       -0.64437011037873
C           -1.76221583588326       -0.44628298418259        0.53225892753005
C           -0.36369666895877        0.11387635454117        0.34747031804221
O           -0.10515894604394        1.28703948970152        0.51425029226062
N            0.57043274767903       -0.81150288043167       -0.04509704342188
C            1.92967245739027       -0.55844669079447       -0.24546593794324
N            2.56780129419383        0.50980767931454       -0.16886467874445
H           -3.66039638838221       -0.36499921333803       -0.49765752411206
H           -2.26409249445688       -0.41752116149926       -1.58041503470704
H           -2.65321542259599        1.07169597638150       -0.71540199372931
H           -1.74279938239545       -1.53381274880023        0.61179670871148
H           -2.17321576242841       -0.03150957530232        1.45201084879799
H            0.26222560481902       -1.76571542307505       -0.16669975372388
H            2.47482893413757       -1.46150488652438       -0.51145514533009
H            2.00930611151382        1.32360938067819        0.07851103094840
15
 energy: -22.554613852669 gnorm: 0.006343117100 xtb: 6.7.0 (08769fc)
C           -2.63471350456527       -0.02385750732439       -0.64913978070918
C           -1.76355338209598       -0.43871572484077        0.53878780926009
C           -0.36372158449995        0.12014674788213        0.36039204971653
O           -0.09808119839634        1.28893150984890        0.54126315815334
N            0.56374328790252       -0.80333070754929       -0.04633351523332
C            1.92273800095702       -0.55815647603134       -0.25873617028394
N            2.56877667031035        0.50415246583149       -0.16731200170768
H           -3.65247396415956       -0.37835963646830       -0.50632937716286
H           -2.24800713759074       -0.43669155076409       -1.57719155718188
H           -2.65103704402856        1.05985945410566       -0.73337554273124
H           -1.74215719060910       -1.52449046649584        0.63147023818124
H           -2.18178232500529       -0.01335358990465        1.44950210336009
H            0.24836931258257       -1.75331356253609       -0.17844088060726
H            2.46001071573748       -1.45900398604651       -0.54473720624137
H            2.01907501506091        1.31753869409310        0.10105157738748
15
 energy: -22.554863751322 gnorm: 0.007086797971 xtb: 6.7.0 (08769fc)
C           -2.60073568871432       -0.06590162446744       -0.66961165728186
C           -1.76945728106464       -0.40777470364580        0.57062853670819
C           -0.36388717334284        0.14283555614656        0.41572210600343
O           -0.07081309971042        1.29505626870990        0.65701365530761
N            0.53673917856559       -0.77461517282784       -0.05828159454628
C            1.89446173617045       -0.55624481921873       -0.31213585610969
N            2.56803490259012        0.48506362997862       -0.16018414662730
H           -3.61848151719289       -0.42943287340044       -0.54629072770363
H           -2.17507305496859       -0.51809469153988       -1.56388478438715
H           -2.63532549972728        1.01307507830453       -0.80985886522628
H           -1.74495642347031       -1.48786241782480        0.72287333890785
H           -2.21913771904575        0.06731505047705        1.44385129049520
H            0.19373827265997       -1.70889159320963       -0.23805899093998
H            2.40251061391332       -1.44742787455879       -0.68077897420902
H            2.04956842493766        1.29425585087667        0.18986757380898
15
 energy: -22.554919016540 gnorm: 0.012079063952 xtb: 6.7.0 (08769fc)
C           -2.57690200596371       -0.08862954640462       -0.68041576197341
C           -1.77307041210738       -0.39125459127765        0.59106257585641
C           -0.36458326355018        0.15163949218145        0.44793531643473
O           -0.05619371448124        1.29350983579268        0.72976515642681
N            0.52067335196460       -0.76202714793304       -0.07223631100059
C            1.87727935064613       -0.55426511267323       -0.34163180181566
N            2.55998108193737        0.47778022335719       -0.15567076227649
H           -3.59589398536950       -0.45348876200108       -0.57108984615540
H           -2.12668548420452       -0.56484223395003       -1.55348664021427
H           -2.61460329551848        0.98671900464892       -0.85357350109783
H           -1.75459452521375       -1.46770448620964        0.78118817038846
H           -2.23890880525576        0.11611420885109        1.44254836616603
H            0.16252020784992       -1.68692257144453       -0.28328407101736
H            2.37390810223650       -1.43425211362293       -0.74856821841064
H            2.05425906863013        1.27897946448542        0.22832823288928
15
 energy: -22.554993027063 gnorm: 0.008760133077 xtb: 6.7.0 (08769fc)
C           -2.57656320100651       -0.08090620031510       -0.67636237966775
C           -1.77269499065410       -0.39747378807796        0.58859190132947
C           -0.36568818465340        0.14366952408833        0.44104140767806
O           -0.06240895559875        1.28636890396492        0.71852639035694
N            0.52383244807841       -0.77001657506127       -0.07627002298825
C            1.87988889753461       -0.55306089112532       -0.33187338277321
N            2.55229891356024        0.48511176342631       -0.15950127699478
H           -3.59691314211561       -0.44039372533503       -0.56838417135546
H           -2.12951234487330       -0.55260386075987       -1.55196287115151
H           -2.60246950230708        0.99390184481845       -0.84178252308971
H           -1.76348457862990       -1.47395821156053        0.77285200735583
H           -2.23192886004319        0.10494421635021        1.44558174287702
H            0.17063688618491       -1.69627966236364       -0.28304826556992
H            2.38444743002588       -1.42939414402486       -0.71988790424931
H            2.03774485609786        1.28144646977534        0.20335025244263
15
 energy: -22.555084653779 gnorm: 0.004952569579 xtb: 6.7.0 (08769fc)
C           -2.56831771058400       -0.08715514579115       -0.67898687142765
C           -1.77434193795112       -0.39356996838065        0.59551385947375
C           -0.36678206426111        0.14449717762982        0.44962055610329
O           -0.06000989316681        1.28240917592965        0.73519645085272
N            0.51828630034255       -0.76642869448439       -0.07924465901775
C            1.87359565576285       -0.54943553570287       -0.33612089465148
N            2.55183812960920        0.48551880184652       -0.16563078463228
H           -3.58910237598294       -0.44666369934592       -0.57769748408302
H           -2.11372748712426       -0.56558071623767       -1.54665774757957
H           -2.59157735967005        0.98621918861614       -0.85288775186771
H           -1.76772426140741       -1.46792329619231        0.78836833966318
H           -2.23900350692926        0.11439906348116        1.44518304895244
H            0.16223066388843       -1.68879535620225       -0.29187417763055
H            2.36901676014703       -1.42769163744052       -0.74170832084675
H            2.04280475892697        1.28155630607442        0.21779734089146
15
 energy: -22.555170025040 gnorm: 0.007414977738 xtb: 6.7.0 (08769fc)
C           -2.55029058574344       -0.10337200578695       -0.68565587960846
C           -1.77810030486459       -0.38308023603485        0.60974302471246
C           -0.36793815808653        0.14871115884805        0.47240227173291
O           -0.04859722118111        1.27598192696009        0.79068707672909
N            0.50514384082789       -0.75619639493117       -0.08704692951836
C            1.85929785329870       -0.54343514296594       -0.35219466737235
N            2.55065193717521        0.48309552380215       -0.16931973857340
H           -3.57215035767811       -0.46224607637102       -0.59629290942746
H           -2.07998090173409       -0.59992874788135       -1.53481413649508
H           -2.57139186464920        0.96686128495598       -0.88288338173936
H           -1.77444501706523       -1.45317980951470        0.82476277581574
H           -2.25594854015988        0.14165442896190        1.44153089840439
H            0.13830302407224       -1.66968938838600       -0.32180844781755
H            2.33909629622261       -1.41990421704282       -0.78667451772847
H            2.05353567116563        1.27608335918662        0.23843546508600
15
 energy: -22.555240650910 gnorm: 0.002277686717 xtb: 6.7.0 (08769fc)
C           -2.54918263175305       -0.10541146377082       -0.68592610770482
C           -1.77915061194098       -0.38062010876868        0.60973628994142
C           -0.36594844301724        0.14715913990963        0.47565235704174
O           -0.04348410663559        1.27057093022617        0.79826546957531
N            0.50445894239125       -0.75491933149614       -0.08745281184148
C            1.85738489602376       -0.54007778006424       -0.35671105289495
N            2.55044016793824        0.48199303737413       -0.16917087956523
H           -3.57167356537925       -0.46265141520243       -0.59512570078073
H           -2.07934581278818       -0.60516617960243       -1.53156793326114
H           -2.57013702215189        0.96354509356870       -0.88643276079897
H           -1.77474921373363       -1.45019491038536        0.82598226536385
H           -2.25981606741805        0.14585892352546        1.43642794396113
H            0.13592655201089       -1.66607740226199       -0.32465667155139
H            2.33790970613643       -1.41535702266013       -0.78722804510300
H            2.05455288191739        1.27270415340811        0.23907854181834
15
 energy: -22.555266801028 gnorm: 0.001303680907 xtb: 6.7.0 (08769fc)
C           -2.54711819805958       -0.10873281501620       -0.68739942119120
C           -1.78054114287489       -0.37791164416421        0.61065480411589
C           -0.36480809652454        0.14706630793078        0.47860375960842
O           -0.03796276119156        1.26613234028262        0.81038316898222
N            0.50287839332334       -0.75375298166217       -0.08729921079097
C            1.85566633501613       -0.53829550015800       -0.35816209019007
N            2.55065087618689        0.48123578777304       -0.16859673611165
H           -3.57056333291469       -0.46350605180935       -0.59504588762321
H           -2.07830463091222       -0.61356836052844       -1.52952185822636
H           -2.56744147233011        0.95891769878946       -0.89355616090235
H           -1.77533564690129       -1.44671837256040        0.83074191703798
H           -2.26261338978719        0.15196301078557        1.43281959926467
H            0.13171352606434       -1.66206528487268       -0.32933662433123
H            2.33410155549042       -1.41011204578485       -0.79496928534489
H            2.05686365701503        1.27070357479482        0.24155492990284
15
 energy: -22.555302997907 gnorm: 0.002831950835 xtb: 6.7.0 (08769fc)
C           -2.54213872712627       -0.11646143748654       -0.69116368576677
C           -1.78304152954022       -0.37219995021648        0.61347719239640
C           -0.36244289893537        0.14672418805450        0.48886290421830
O           -0.02779003393256        1.25834380317185        0.83867503111699
N            0.49895676396032       -0.75101615432462       -0.08815721984116
C            1.85070131312184       -0.53394354336496       -0.36606030146606
N            2.55003691625437        0.48131837832774       -0.17071335668257
H           -3.56792148951203       -0.46544002388947       -0.59733463817392
H           -2.07412976563350       -0.63343505932783       -1.52563945001847
H           -2.55926532275704        0.94868034760513       -0.91070242493537
H           -1.77819925532893       -1.43895398077899        0.84438966671266
H           -2.26829445264211        0.16648783769479        1.42669399552717
H            0.12251535629444       -1.65404032945433       -0.34086875300758
H            2.32582106866600       -1.40200570660741       -0.81222721231558
H            2.06237772871116        1.26729729439663        0.25163915643605
15
 energy: -22.555331618100 gnorm: 0.002489452299 xtb: 6.7.0 (08769fc)
C           -2.53823458826522       -0.12147974522563       -0.69343089882242