mol_id,SMILES,formula,inchi,mass,HOMO(eV),LUMO(eV),GAP(eV),dipole_moment
000005221,OC1CCC2(C(C1)C(=O)CC1C2CC2C1CCC1C2CN2CC(C)CCC2C1(C)O)C,C27H43NO3,"InChI=1S/C27H43NO3/c1-15-4-7-25-27(3,31)21-6-5-17-18(20(21)14-28(25)13-15)11-22-19(17)12-24(30)23-10-16(29)8-9-26(22,23)2/h15-23,25,29,31H,4-14H2,1-3H3",429.63522,-5.967456741465,-0.40272849874000016,5.564728242725,4.826229368237692
000005224,NCC1=CCC(C(O1)OC1C(N)CC(C(C1O)OC1OCC(C(C1O)NC)(C)O)N)N,C19H37N5O7,"InChI=1S/C19H37N5O7/c1-19(27)7-28-18(13(26)16(19)24-2)31-15-11(23)5-10(22)14(12(15)25)30-17-9(21)4-3-8(6-20)29-17/h3,9-18,24-27H,4-7,20-23H2,1-2H3",447.52638,-5.880380309305,0.3183732050849999,6.19875351439,4.0220578771056985
000005225,OC(=O)NC(=O)c1ccccc1NS(=O)(=O)c1ccc(cc1)OC(=O)C(C)(C)C,C19H20N2O7S,"InChI=1S/C19H20N2O7S/c1-19(2,3)17(23)28-12-8-10-13(11-9-12)29(26,27)21-15-7-5-4-6-14(15)16(22)20-18(24)25/h4-11,21H,1-3H3,(H,20,22)(H,24,25)",420.4363,-6.32936816263,-1.6435676570200002,4.68580050561,8.6819208003792
000005226,NS(=O)(=O)c1ccc2c(c1)CNCC2,C9H12N2O2S,"InChI=1S/C9H12N2O2S/c10-14(12,13)9-2-1-7-3-4-11-6-8(7)5-9/h1-2,5,11H,3-4,6H2,(H2,10,12,13)",212.26878,-6.23140717645,-1.031311493395,5.200095683055,4.258938648197459
000005228,Fc1ccc(cc1)c1nc2n(c1c1ccncc1)CCS2,C16H12FN3S,"InChI=1S/C16H12FN3S/c17-13-3-1-11(2-4-13)14-15(12-5-7-18-8-6-12)20-9-10-21-16(20)19-14/h1-8H,9-10H2",297.3499832,-5.276287561195,-1.287098512865,3.9891890483299997,5.021320977747688
000005230,NCCCP(=O)(O)C,C4H12NO2P,"InChI=1S/C4H12NO2P/c1-8(6,7)4-2-3-5/h2-5H2,1H3,(H,6,7)",137.117341,-6.42732914881,1.1945798036950004,7.621908952505001,2.348366667237891
000005231,O=NSC(C(C(=O)O)NC(=O)C)(C)C,C7H12N2O4S,"InChI=1S/C7H12N2O4S/c1-4(10)8-5(6(11)12)7(2,3)14-9-13/h5H,1-3H3,(H,8,10)(H,11,12)",220.24618,-6.45454053386,-2.4735149010449997,3.9810256328150007,3.7163991487473464
000005232,CCCCC(=O)NC(C(SN=O)(C)C)C(=O)O,C10H18N2O4S,"InChI=1S/C10H18N2O4S/c1-4-5-6-7(13)11-8(9(14)15)10(2,3)17-12-16/h8H,4-6H2,1-3H3,(H,11,13)(H,14,15)",262.32592,-6.37290637871,-2.3755539148650002,3.9973524638449995,3.3698812802254623
000005234,[Na+].[Cl-],ClNa,InChI=1S/ClH.Na/h1H;/q;+1/p-1,58.44277,-6.55250152004,-1.5456066708399998,5.0068948492,6.2506823962365905
000005235,[F-].[Na+],FNa,InChI=1S/FH.Na/h1H;/q;+1/p-1,41.9881732,-5.7035063064800005,-1.83948962938,3.8640166771000004,7.162463901130532
000005237,OC(=O)CF,C2H3FO2,"InChI=1S/C2H3FO2/c3-1-2(4)5/h1H2,(H,4,5)",78.0424232,-7.741639046724999,-0.19047969534999964,7.5511593513749995,3.0605326148933623
000005242,NC(=O)C(=O)[O-].[Na+],C2H2NNaO3,"InChI=1S/C2H3NO3.Na/c3-1(4)2(5)6;/h(H2,3,4)(H,5,6);/q;+1/p-1",111.03195,-5.61098759731,-1.5456066708399998,4.0653809264700005,7.242493465472372
000005243,OS(=O)(=O)Oc1ccc(cc1)C(c1ccccn1)c1ccc(cc1)OS(=O)(=O)O,C18H15NO8S2,"InChI=1S/C18H15NO8S2/c20-28(21,22)26-15-8-4-13(5-9-15)18(17-3-1-2-12-19-17)14-6-10-16(11-7-14)27-29(23,24)25/h1-12,18H,(H,20,21,22)(H,23,24,25)",437.4436,-6.40556004077,-1.140157033595,5.265403007175,7.5407512516327575
000005244,O=C1CCC2C1(C)CCC1C2CC=C2C1(C)CCC(C2)OS(=O)(=O)O,C19H28O5S,"InChI=1S/C19H28O5S/c1-18-9-7-13(24-25(21,22)23)11-12(18)3-4-14-15-5-6-17(20)19(15,2)10-8-16(14)18/h3,13-16H,4-11H2,1-2H3,(H,21,22,23)",368.48762,-6.288551085055,-0.37551711368999996,5.913033971365,0.9305100223501088
000005245,OP(=O)(C(P(=O)(O)O)(Cc1cccnc1)O)O,C7H11NO7P2,"InChI=1S/C7H11NO7P2/c9-7(16(10,11)12,17(13,14)15)4-6-2-1-3-8-5-6/h1-3,5,9H,4H2,(H2,10,11,12)(H2,13,14,15)",283.112262,-7.066796697485,-0.99593669283,6.070860004655,2.5997014147897834
000005248,CCCCCCCCCCCCCCOS(=O)(=O)O,C14H30O4S,"InChI=1S/C14H30O4S/c1-2-3-4-5-6-7-8-9-10-11-12-13-14-18-19(15,16)17/h2-14H2,1H3,(H,15,16,17)",294.4506,-7.474967473235,0.144220340765,7.619187814,2.693486627429028
000005249,OC(=O)COc1cc(OCC=C(C)C)ccc1C(=O)C=Cc1ccc(cc1)OCC=C(C)C,C27H30O6,"InChI=1S/C27H30O6/c1-19(2)13-15-31-22-8-5-21(6-9-22)7-12-25(28)24-11-10-23(32-16-14-20(3)4)17-26(24)33-18-27(29)30/h5-14,17H,15-16,18H2,1-4H3,(H,29,30)",450.5235,-5.91575510987,-2.00275793968,3.91299717019,12.021062879494476
000005250,CC1CCC2(NC1)OC1C(C2C)C2(C(C1)C1CC=C3C(C1CC2)(C)CCC(C3)O)C,C27H43NO2,"InChI=1S/C27H43NO2/c1-16-7-12-27(28-15-16)17(2)24-23(30-27)14-22-20-6-5-18-13-19(29)8-10-25(18,3)21(20)9-11-26(22,24)4/h5,16-17,19-24,28-29H,6-15H2,1-4H3",413.63582,-4.541580164845,-0.88709115263,3.6544890122149996,2.2420426353921106
000005251,CC=CC=CC(=O)O,C6H8O2,"InChI=1S/C6H8O2/c1-2-3-4-5-6(7)8/h2-5H,1H3,(H,7,8)",112.12652,-6.57971290509,-1.7877879977850002,4.791924907305,5.571933397973633
000005252,Fc1cc2C3(CCOc2cc1)NC(=O)NC3=O,C11H9FN2O3,"InChI=1S/C11H9FN2O3/c12-6-1-2-8-7(5-6)11(3-4-17-8)9(15)13-10(16)14-11/h1-2,5H,3-4H2,(H2,13,14,15,16)",236.1991632,-6.016437234555,-0.8462740750549997,5.1701631595,2.3735150166539922
000005253,CC(NCC(c1ccc(cc1)NS(=O)(=O)C)O)C,C12H20N2O3S,"InChI=1S/C12H20N2O3S/c1-9(2)13-8-12(15)10-4-6-11(7-5-10)14-18(3,16)17/h4-7,9,12-15H,8H2,1-3H3",272.3638,-5.874938032295001,-0.454430130335,5.420507901960001,4.036787729298136
000005254,CC1Oc2c3C=CC(Oc3c3c(c2C(=O)C1C)oc(=O)cc3c1ccccc1)(C)C,C25H22O5,"InChI=1S/C25H22O5/c1-13-14(2)28-22-16-10-11-25(3,4)30-23(16)19-17(15-8-6-5-7-9-15)12-18(26)29-24(19)20(22)21(13)27/h5-14H,1-4H3",402.43918,-5.58921848927,-1.629961964495,3.9592565247750002,8.42203824443917
000005255,OC(=O)CCC(C(=O)O)NC(=O)C(NC(=O)C)CC(=O)O,C11H16N2O8,"InChI=1S/C11H16N2O8/c1-5(14)12-7(4-9(17)18)10(19)13-6(11(20)21)2-3-8(15)16/h6-7H,2-4H2,1H3,(H,12,14)(H,13,19)(H,15,16)(H,17,18)(H,20,21)",304.25334,-7.153873129645,-0.9115813991749997,6.242291730470001,5.779154994906175
000005256,NCCCCC(C(=O)NCC(=O)NC(C(=O)NC(C(=O)O)CCCCN)Cc1[nH]cnc1)N,C20H36N8O5,"InChI=1S/C20H36N8O5/c21-7-3-1-5-14(23)18(30)25-11-17(29)27-16(9-13-10-24-12-26-13)19(31)28-15(20(32)33)6-2-4-8-22/h10,12,14-16H,1-9,11,21-23H2,(H,24,26)(H,25,30)(H,27,29)(H,28,31)(H,32,33)",468.55044,-5.5728916582400005,-0.4136130527599997,5.159278605480001,9.376452461236338
000005257,CC1NC(C)CN(C1)c1c(F)c(N)c2c(c1F)n(cc(c2=O)C(=O)O)C1CC1,C19H22F2N4O3,"InChI=1S/C19H22F2N4O3/c1-8-5-24(6-9(2)23-8)17-13(20)15(22)12-16(14(17)21)25(10-3-4-10)7-11(18(12)26)19(27)28/h7-10,23H,3-6,22H2,1-2H3,(H,27,28)",392.3997864,-5.39329651691,-1.472135931205,3.9211605857049996,8.686389779590426
000005259,NCCCNCCCCN(N(N=O)O)CCCN,C10H26N6O2,"InChI=1S/C10H26N6O2/c11-5-3-8-13-7-1-2-9-15(10-4-6-12)16(18)14-17/h13,18H,1-12H2",262.35244,-5.89942827884,-0.6068138866149999,5.292614392225,5.663771449601935
000005262,CCCCCCCCCCCCCC=CC(C(COP(=O)(O)O)N)O,C18H38NO5P,"InChI=1S/C18H38NO5P/c1-2-3-4-5-6-7-8-9-10-11-12-13-14-15-18(20)17(19)16-24-25(21,22)23/h14-15,17-18,20H,2-13,16,19H2,1H3,(H2,21,22,23)",379.471781,-6.2014746528949996,0.23946018843999983,6.440934841334999,3.7725510090475916
000005263,CCCCCCCCCCCCCC=CC(C(COP(=O)(OCC[N+](C)(C)C)[O-])N)O,C23H49N2O5P,"InChI=1S/C23H49N2O5P/c1-5-6-7-8-9-10-11-12-13-14-15-16-17-18-23(26)22(24)21-30-31(27,28)29-20-19-25(2,3)4/h17-18,22-23,26H,5-16,19-21,24H2,1-4H3",464.619321,-5.077644450329999,0.8136204129950002,5.8912648633249995,12.034652897156526
000005267,CC(=O)SC1CC2=CC(=O)CCC2(C2C1C1CCC3(C1(CC2)C)CCC(=O)O3)C,C24H32O4S,"InChI=1S/C24H32O4S/c1-14(25)29-19-13-15-12-16(26)4-8-22(15,2)17-5-9-23(3)18(21(17)19)6-10-24(23)11-7-20(27)28-24/h12,17-19,21H,4-11,13H2,1-3H3",416.57348,-6.272224254025001,-1.21907005024,5.053154203785001,4.461740736477076
000005268,O=C1NCN(C21CCN(CC2)CC1COc2c(O1)cccc2)c1ccccc1,C22H25N3O3,"InChI=1S/C22H25N3O3/c26-21-22(25(16-23-21)17-6-2-1-3-7-17)10-12-24(13-11-22)14-18-15-27-19-8-4-5-9-20(19)28-18/h1-9,18H,10-16H2,(H,23,26)",379.4522,-5.412344486445,-0.4408244378099999,4.971520048635,5.382096582516334
000005269,O=C1CCc2c(O1)ccc1c2cccc1,C13H10O2,"InChI=1S/C13H10O2/c14-13-8-6-11-10-4-2-1-3-9(10)5-7-12(11)15-13/h1-5,7H,6,8H2",198.2173,-5.896707140335001,-1.2462814352900002,4.650425705045,3.9347962293225556
000005270,Nc1ncnc2c1ncn2C1CCCO1,C9H11N5O,"InChI=1S/C9H11N5O/c10-8-7-9(12-4-11-8)14(5-13-7)6-2-1-3-15-6/h4-6H,1-3H2,(H2,10,11,12)",205.21654,-5.75792907658,-0.5279008699699999,5.23002820661,2.4592540282380346
000005271,O=C(Nc1ccccc1)NNCC1C2CCC(C1CC=CCCCC(=O)O)O2,C21H29N3O4,"InChI=1S/C21H29N3O4/c25-20(26)11-7-2-1-6-10-16-17(19-13-12-18(16)28-19)14-22-24-21(27)23-15-8-4-3-5-9-15/h1,3-6,8-9,16-19,22H,2,7,10-14H2,(H,25,26)(H2,23,24,27)",387.47266,-5.94296649492,-0.16871058730999966,5.774255907610001,7.364868691129598
000005272,CCCCC=CCC1C2CCC(C1CNNC(=O)Nc1ccccc1)O2,C21H31N3O2,"InChI=1S/C21H31N3O2/c1-2-3-4-5-9-12-17-18(20-14-13-19(17)26-20)15-22-24-21(25)23-16-10-7-6-8-11-16/h5-11,17-20,22H,2-4,12-15H2,1H3,(H2,23,24,25)",357.48974,-5.804188431165,0.010884554020000436,5.815072985185,0.8986476238404016
000005276,CCOc1cc(C=C(C(=O)N)C#N)cc(c1O)CSc1ccccc1,C19H18N2O3S,"InChI=1S/C19H18N2O3S/c1-2-24-17-10-13(8-14(11-20)19(21)23)9-15(18(17)22)12-25-16-6-4-3-5-7-16/h3-10,22H,2,12H2,1H3,(H2,21,23)",354.42282,-5.75792907658,-2.00275793968,3.7551711369,2.6912716347223298
000005279,CNC1CC2OC(C1OC)(C)n1c3ccccc3c3c1c1n2c2ccccc2c1c1c3CNC1=O,C28H26N4O3,"InChI=1S/C28H26N4O3/c1-28-26(34-3)17(29-2)12-20(35-28)31-18-10-6-4-8-14(18)22-23-16(13-30-27(23)33)21-15-9-5-7-11-19(15)32(28)25(21)24(22)31/h4-11,17,20,26,29H,12-13H2,1-3H3,(H,30,33)",466.53104,-5.053154203785001,-1.0476383244249998,4.005515879360001,6.348790236601459
000005280,Cc1cn(C2CCC(O2)CO)c(=O)[nH]c1=O,C10H14N2O4,"InChI=1S/C10H14N2O4/c1-6-4-12(10(15)11-9(6)14)8-3-2-7(5-13)16-8/h4,7-8,13H,2-3,5H2,1H3,(H,11,14,15)",226.22916,-6.3021567775800005,-1.17553183416,5.12662494342,4.001509251128629
000005281,CCCCCCCCCCCCCCCCCC(=O)O,C18H36O2,"InChI=1S/C18H36O2/c1-2-3-4-5-6-7-8-9-10-11-12-13-14-15-16-17-18(19)20/h2-17H2,1H3,(H,19,20)",284.47724,-7.3770064870550005,0.24218132694500039,7.619187814000001,4.226311354230424
000005283,COc1cc2CC3C(=O)OCC3C(=O)c3c(c2c(c1OC)OC)cc1OCOc1c3,C22H20O8,"InChI=1S/C22H20O8/c1-25-17-5-10-4-13-14(8-28-22(13)24)19(23)12-7-16-15(29-9-30-16)6-11(12)18(10)21(27-3)20(17)26-2/h5-7,13-14H,4,8-9H2,1-3H3",412.3894,-5.363363993355,-1.1129456485449998,4.25041834481,4.540962941511966
000005284,O=C1CC2C(C1=C(C=CC=C(c1ccc(c(=O)o1)C)C)C)(C)CCC1C2(C)CCC(=O)C1(C)C,C30H38O4,"InChI=1S/C30H38O4/c1-18(22-12-11-20(3)27(33)34-22)9-8-10-19(2)26-21(31)17-24-29(6)16-14-25(32)28(4,5)23(29)13-15-30(24,26)7/h8-12,23-24H,13-17H2,1-7H3",462.62032,-5.6164298743200005,-1.684384734595,3.9320451397250005,4.958382296410897
000005286,CC(=CC=CC(=C1C(=O)CC2C1(C)CCC1C2(C)CCC(=O)C1(C)C)C)C=C(C=C(C(=O)O)C)C,C31H42O4,"InChI=1S/C31H42O4/c1-19(16-20(2)17-22(4)28(34)35)10-9-11-21(3)27-23(32)18-25-30(7)15-13-26(33)29(5,6)24(30)12-14-31(25,27)8/h9-11,16-17,24-25H,12-15,18H2,1-8H3,(H,34,35)",478.66278,-5.9348030794049995,-1.9755465546300002,3.9592565247749993,2.5678912893800625
000005287,CC(=CC=CC(=C1C(=O)CC2C1(C)CCC1C2(C)CCC(=O)C1(C)C)C)C=CC=C(C(=O)O)C,C30H40O4,"InChI=1S/C30H40O4/c1-19(11-9-13-21(3)27(33)34)10-8-12-20(2)26-22(31)18-24-29(6)17-15-25(32)28(4,5)23(29)14-16-30(24,26)7/h8-13,23-24H,14-18H2,1-7H3,(H,33,34)",464.6362,-5.57833393525,-1.8667010144299998,3.71163292082,6.3492349887990445
000005288,COC(=O)C(=CC=CC(=CC=CC(=C1C(=O)CC2C1(C)CCC1C2(C)CCC(=O)C1(C)C)C)C)C,C31H42O4,"InChI=1S/C31H42O4/c1-20(12-10-14-22(3)28(34)35-8)11-9-13-21(2)27-23(32)19-25-30(6)18-16-26(33)29(4,5)24(30)15-17-31(25,27)7/h9-14,24-25H,15-19H2,1-8H3",478.66278,-5.477651810565001,-1.8204416598450002,3.6572101507200006,3.195426702710297
000005290,COc1cc2CCN3C(c2cc1O)Cc1c(C3)c(OC)c(cc1)O,C19H21NO4,"InChI=1S/C19H21NO4/c1-23-18-8-12-5-6-20-10-14-11(3-4-16(21)19(14)24-2)7-15(20)13(12)9-17(18)22/h3-4,8-9,15,21-22H,5-7,10H2,1-2H3",327.37434,-5.31710463877,0.1034032631899997,5.42050790196,4.199912633038692
000005291,CN1CCN(CC1)Cc1ccc(cc1)C(=O)Nc1ccc(c(c1)Nc1nccc(n1)c1cccnc1)C,C29H31N7O,"InChI=1S/C29H31N7O/c1-21-5-10-25(18-27(21)34-29-31-13-11-26(33-29)24-4-3-12-30-19-24)32-28(37)23-8-6-22(7-9-23)20-36-16-14-35(2)15-17-36/h3-13,18-19H,14-17,20H2,1-2H3,(H,32,37)(H,31,33,34)",493.60274,-5.181047713520001,-1.4122708840950002,3.7687768294250006,4.35566570410035
000005292,CC=C(C=CC=CC(C(C(C(CCc1oc2c(O)c(OC)cc(c2c(=O)c1C)OC)C)C)C)C)C,C30H42O5,"InChI=1S/C30H42O5/c1-10-18(2)13-11-12-14-19(3)21(5)22(6)20(4)15-16-24-23(7)28(31)27-25(33-8)17-26(34-9)29(32)30(27)35-24/h10-14,17,19-22,32H,15-16H2,1-9H3",482.65148,-5.080365588835,-1.0476383244249998,4.03272726441,2.244314677876077
000005294,C=CCCC=CC=CCCCCCCCCC1CCC(O1)C1CCC(OO1)CC(=O)O,C26H42O5,"InChI=1S/C26H42O5/c1-2-3-4-5-6-7-8-9-10-11-12-13-14-15-16-22-17-19-24(29-22)25-20-18-23(30-31-25)21-26(27)28/h2,5-8,22-25H,1,3-4,9-21H2,(H,27,28)",434.60868,-5.6164298743200005,-0.22857563442000028,5.3878542399,1.8334448945441475
000005295,CCCCC=CC=CCCCCCCCCC1CCC(O1)C1CCC(OO1)CC(=O)O,C26H44O5,"InChI=1S/C26H44O5/c1-2-3-4-5-6-7-8-9-10-11-12-13-14-15-16-22-17-19-24(29-22)25-20-18-23(30-31-25)21-26(27)28/h5-8,22-25H,2-4,9-21H2,1H3,(H,27,28)",436.62456,-5.53479571917,-0.1306146482399999,5.40418107093,3.6102087515884724
000005296,C=CCCC=CC=CCCCCCCC1CCC(O1)C1CCC(OO1)CC(=O)OC,C25H40O5,"InChI=1S/C25H40O5/c1-3-4-5-6-7-8-9-10-11-12-13-14-15-21-16-18-23(28-21)24-19-17-22(29-30-24)20-25(26)27-2/h3,6-9,21-24H,1,4-5,10-20H2,2H3",420.5821,-5.581055073755,-0.19047969534999964,5.390575378405001,2.5440821060423735
000005299,CN(C(=O)NC(C(C(C(CO)O)O)O)C=O)N=O,C8H15N3O7,"InChI=1S/C8H15N3O7/c1-11(10-18)8(17)9-4(2-12)6(15)7(16)5(14)3-13/h2,4-7,13-16H,3H2,1H3,(H,9,17)",265.2206,-6.53617468901,-2.07894981782,4.45722487119,1.7140636726635916
000005300,OCC1OC(O)C(C(C1O)O)NC(=O)N(N=O)C,C8H15N3O7,"InChI=1S/C8H15N3O7/c1-11(10-17)8(16)9-4-6(14)5(13)3(2-12)18-7(4)15/h3-7,12-15H,2H2,1H3,(H,9,16)",265.2206,-6.56338607406,-1.961940862105,4.601445211955,4.161076912103163
000005302,ClC(C1(Cl)C(Cl)C(Cl)C2(C(C1(Cl)C2(C)C)Cl)Cl)Cl,C10H10Cl8,"InChI=1S/C10H10Cl8/c1-7(2)8(16)3(11)4(12)9(17,6(14)15)10(7,18)5(8)13/h3-6H,1-2H3",413.8104,-7.670889445595,-1.3578481139949998,6.3130413316,2.295953207079796
000005303,O=CC12CCC(CC2(O)CCC2C1CCC1(C2(O)CCC1C1=CC(=O)OC1)C)O,C23H32O6,"InChI=1S/C23H32O6/c1-20-6-3-17-18(4-8-22(27)11-15(25)2-7-21(17,22)13-24)23(20,28)9-5-16(20)14-10-19(26)29-12-14/h10,13,15-18,25,27-28H,2-9,11-12H2,1H3",404.49658,-6.6912795837950005,-1.3959440530650005,5.29533553073,5.940240861767643
000005304,O=C1CC2OCC=C3C4C2C2N1c1ccccc1C12CCN(C1C4)C3,C21H22N2O2,"InChI=1S/C21H22N2O2/c24-18-10-16-19-13-9-17-21(6-7-22(17)11-12(13)5-8-25-16)14-3-1-2-4-15(14)23(18)20(19)21/h1-5,13,16-17,19-20H,6-11H2",334.41158,-5.581055073755,-0.3183732050849999,5.2626818686700005,3.558338433650599
000005305,CC(c1cc(C=C(C(=O)NCCCc2ccccc2)C#N)cc(c1O)C(C)C)C,C25H30N2O2,"InChI=1S/C25H30N2O2/c1-17(2)22-14-20(15-23(18(3)4)24(22)28)13-21(16-26)25(29)27-12-8-11-19-9-6-5-7-10-19/h5-7,9-10,13-15,17-18,28H,8,11-12H2,1-4H3,(H,27,29)",390.5179,-5.956572187445,-1.8966335379850001,4.05993864946,2.5508823606215167
000005306,O=CN1CCN(CC1)c1ccc(cc1)C=C1C(=O)Nc2c1cccc2,C20H19N3O2,"InChI=1S/C20H19N3O2/c24-14-22-9-11-23(12-10-22)16-7-5-15(6-8-16)13-18-17-3-1-2-4-19(17)21-20(18)25/h1-8,13-14H,9-12H2,(H,21,25)",333.38376,-5.42595017897,-1.673500180575,3.752449998395,2.8218004086515402
000005307,OC(=O)CCc1c([nH]cc1C)C=C1C(=O)Nc2c1cccc2,C17H16N2O3,"InChI=1S/C17H16N2O3/c1-10-9-18-15(11(10)6-7-16(20)21)8-13-12-4-2-3-5-14(12)19-17(13)22/h2-5,8-9,18H,6-7H2,1H3,(H,19,22)(H,20,21)",296.32054,-5.488536364585,-1.983709970145,3.50482639444,7.0217581512863285
000005308,Clc1ccc2c(c1)C(=Cc1[nH]c(cc1C)C)C(=O)N2,C15H13ClN2O,"InChI=1S/C15H13ClN2O/c1-8-5-9(2)17-14(8)7-12-11-6-10(16)3-4-13(11)18-15(12)19/h3-7,17H,1-2H3,(H,18,19)",272.72952,-5.145672912955,-1.918402646025,3.2272702669299997,2.6163758312675567
000005309,O=C1Nc2c(C1=Cc1cc3c([nH]1)CCCC3)cc(cc2)S(=O)(=O)N(C)C,C19H21N3O3S,"InChI=1S/C19H21N3O3S/c1-22(2)26(24,25)14-7-8-18-15(11-14)16(19(23)21-18)10-13-9-12-5-3-4-6-17(12)20-13/h7-11,20H,3-6H2,1-2H3,(H,21,23)",371.45334,-5.368806270365,-2.08439209483,3.284414175535,2.0956703317785936
000005311,ONC(=O)CCCCCCC(=O)Nc1ccccc1,C14H20N2O3,"InChI=1S/C14H20N2O3/c17-13(15-12-8-4-3-5-9-12)10-6-1-2-7-11-14(18)16-19/h3-5,8-9,19H,1-2,6-7,10-11H2,(H,15,17)(H,16,18)",264.3202,-5.85589006276,-0.22313335741000007,5.63275670535,2.46901123392098
000005312,OC(=O)CCC(=O)CC(=O)C,C7H10O4,"InChI=1S/C7H10O4/c1-5(8)4-6(9)2-3-7(10)11/h2-4H2,1H3,(H,10,11)",158.1519,-7.14026743712,-1.8748644299450001,5.265403007175,4.24263960382378
000005315,O=C(Nc1ccc(cc1)S(=O)(=O)Nc1nccs1)CCC(=O)O,C13H13N3O5S2,"InChI=1S/C13H13N3O5S2/c17-11(5-6-12(18)19)15-9-1-3-10(4-2-9)23(20,21)16-13-14-7-8-22-13/h1-4,7-8H,5-6H2,(H,14,16)(H,15,17)(H,18,19)",355.38942,-6.065417727644999,-1.8775855684500007,4.187832159194999,4.54328315075607
000005316,OC(=O)C1N2C(=O)CC2S(=O)(=O)C1(C)C,C8H11NO5S,"InChI=1S/C8H11NO5S/c1-8(2)6(7(11)12)9-4(10)3-5(9)15(8,13)14/h5-6H,3H2,1-2H3,(H,11,12)",233.24164,-7.635514645030001,-1.3360790059549998,6.299435639075001,3.0906630016786045
000005317,O=C(C(S(=O)(=O)O)c1ccccc1)NC1C(=O)N2C1SC(C2C(=O)O)(C)C,C16H18N2O7S2,"InChI=1S/C16H18N2O7S2/c1-16(2)11(15(21)22)18-13(20)9(14(18)26-16)17-12(19)10(27(23,24)25)8-6-4-3-5-7-8/h3-7,9-11,14H,1-2H3,(H,17,19)(H,21,22)(H,23,24,25)",414.45332,-6.533453550505,-1.15376272612,5.379690824385,8.362374573253819
000005318,Clc1ccc(cc1)CSC(c1ccc(cc1Cl)Cl)Cn1cncc1,C18H15Cl3N2S,"InChI=1S/C18H15Cl3N2S/c19-14-3-1-13(2-4-14)11-24-18(10-23-8-7-22-12-23)16-6-5-15(20)9-17(16)21/h1-9,12,18H,10-11H2",397.7491,-6.04636975811,-1.0585228784450003,4.987846879665,4.16246898419736
000005319,Nc1ccc(cc1)S(=O)(=O)NC(=O)c1ccccc1,C13H12N2O3S,"InChI=1S/C13H12N2O3S/c14-11-6-8-12(9-7-11)19(17,18)15-13(16)10-4-2-1-3-5-10/h1-9H,14H2,(H,15,16)",276.31098,-5.97562015698,-0.9660041692750001,5.009615987705,6.0934135861398735
000005320,CC(=O)NS(=O)(=O)c1ccc(cc1)N,C8H10N2O3S,"InChI=1S/C8H10N2O3S/c1-6(11)10-14(12,13)8-4-2-7(9)3-5-8/h2-5H,9H2,1H3,(H,10,11)",214.2416,-5.967456741465,-0.7591976428949998,5.20825909857,6.447996690830029
000005321,Nc1ccc(cc1)S(=O)(=O)Nc1cnnc(c1)Cl,C10H9ClN4O2S,"InChI=1S/C10H9ClN4O2S/c11-10-5-8(6-13-14-10)15-18(16,17)9-3-1-7(12)2-4-9/h1-6H,12H2,(H,14,15)",284.72206,-6.13344619027,-1.3660115295100006,4.767434660759999,9.104461379995524
000005322,CCn1ccc(nc1=O)NS(=O)(=O)c1ccc(cc1)N,C12H14N4O3S,"InChI=1S/C12H14N4O3S/c1-2-16-8-7-11(14-12(16)17)15-20(18,19)10-5-3-9(13)4-6-10/h3-8H,2,13H2,1H3,(H,14,15,17)",294.32956,-5.89398600183,-1.1483204491099999,4.74566555272,7.151894688432919
000005323,COc1nc(OC)nc(c1)NS(=O)(=O)c1ccc(cc1)N,C12H14N4O4S,"InChI=1S/C12H14N4O4S/c1-19-11-7-10(14-12(15-11)20-2)16-21(17,18)9-5-3-8(13)4-6-9/h3-7H,13H2,1-2H3,(H,14,15,16)",310.32896,-5.918476248375,-0.9768887232950005,4.941587525079999,7.427545877440273
000005324,Nc1ccc(cc1)S(=O)(=O)N=C(N)N,C7H10N4O2S,"InChI=1S/C7H10N4O2S/c8-5-1-3-6(4-2-5)14(12,13)11-7(9)10/h1-4H,8H2,(H4,9,10,11)",214.2449,-5.787861600135,-0.5333431469800001,5.254518453155,6.064200744800752
000005325,Nc1ccc(cc1)S(=O)(=O)Nc1nccc(n1)C,C11H12N4O2S,"InChI=1S/C11H12N4O2S/c1-8-6-7-13-11(14-8)15-18(16,17)10-4-2-9(12)3-5-10/h2-7H,12H2,1H3,(H,13,14,15)",264.30358,-5.96473560296,-0.9034179836599998,5.0613176193000005,8.010220475328378
000005326,COc1cnc(nc1)NS(=O)(=O)c1ccc(cc1)N,C11H12N4O3S,"InChI=1S/C11H12N4O3S/c1-18-9-6-13-11(14-7-9)15-19(16,17)10-4-2-8(12)3-5-10/h2-7H,12H2,1H3,(H,13,14,15)",280.30298,-5.66541036741,-1.0884554020000001,4.57695496541,7.605028939227056
000005327,Nc1ccc(cc1)S(=O)(=O)Nc1nc(C)cc(n1)C,C12H14N4O2S,"InChI=1S/C12H14N4O2S/c1-8-7-9(2)15-12(14-8)16-19(17,18)11-5-3-10(13)4-6-11/h3-7H,13H2,1-2H3,(H,14,15,16)",278.33016,-5.91031283286,-0.8381106595399999,5.07220217332,7.8325047075807115
000005328,Nc1ccc(cc1)S(=O)(=O)Nc1nnc(s1)C,C9H10N4O2S2,"InChI=1S/C9H10N4O2S2/c1-6-11-12-9(16-6)13-17(14,15)8-4-2-7(10)3-5-8/h2-5H,10H2,1H3,(H,12,13)",270.3313,-5.95929332595,-1.0558017399399997,4.90349158601,6.699361487209658
000005329,Nc1ccc(cc1)S(=O)(=O)Nc1noc(c1)C,C10H11N3O3S,"InChI=1S/C10H11N3O3S/c1-7-6-10(12-16-7)13-17(14,15)9-4-2-8(11)3-5-9/h2-6H,11H2,1H3,(H,12,13)",253.27764,-5.885822586315,-0.9415139227300005,4.944308663585,7.515921035126833
000005330,COc1ccc(nn1)NS(=O)(=O)c1ccc(cc1)N,C11H12N4O3S,"InChI=1S/C11H12N4O3S/c1-18-11-7-6-10(13-14-11)15-19(16,17)9-4-2-8(12)3-5-9/h2-7H,12H2,1H3,(H,13,15)",280.30298,-5.65452581339,-1.1265513410699999,4.52797447232,6.923439048110484