mol_id,SMILES,formula,inchi,mass,HOMO(eV),LUMO(eV),GAP(eV),dipole_moment
000004399,SCC(C(=O)OC(C(=O)O)C(C)C)NC(=O)CCCC(C(=O)O)N,C14H24N2O7S,"InChI=1S/C14H24N2O7S/c1-7(2)11(13(20)21)23-14(22)9(6-24)16-10(17)5-3-4-8(15)12(18)19/h7-9,11,24H,3-6,15H2,1-2H3,(H,16,17)(H,18,19)(H,20,21)",364.41456,-6.12256163625,-1.0775708479799997,5.044990788270001,7.836437129758778
000004400,CCNC(=O)C1OC(C(C1O)O)n1cnc2c1ncnc2NCc1ccccc1,C19H22N6O4,"InChI=1S/C19H22N6O4/c1-2-20-18(28)15-13(26)14(27)19(29-15)25-10-24-12-16(22-9-23-17(12)25)21-8-11-6-4-3-5-7-11/h3-7,9-10,13-15,19,26-27H,2,8H2,1H3,(H,20,28)(H,21,22,23)",398.41578,-5.978341295485,-1.0013789698400002,4.976962325645,5.189926522283047
000004401,Cn1cnc2c1ncnc2NC1CCCC1,C11H15N5,"InChI=1S/C11H15N5/c1-16-7-14-9-10(12-6-13-11(9)16)15-8-4-2-3-5-8/h6-8H,2-5H2,1H3,(H,12,13,15)",217.2703,-5.47493067206,-0.4843626538899999,4.99056801817,2.1463963585631145
000004402,OCC1OC(C(C1O)O)n1cnc2c1ncnc2NC1CCCC1,C15H21N5O4,"InChI=1S/C15H21N5O4/c21-5-9-11(22)12(23)15(24-9)20-7-18-10-13(16-6-17-14(10)20)19-8-3-1-2-4-8/h6-9,11-12,15,21-23H,1-5H2,(H,16,17,19)",335.35834,-5.7143908605,-0.8217838285100001,4.89260703199,3.494770424458522
000004403,CNc1ncnc2c1ncn2C1OC(C(C1O)O)COP(=O)(O)O,C11H16N5O7P,"InChI=1S/C11H16N5O7P/c1-12-9-6-10(14-3-13-9)16(4-15-6)11-8(18)7(17)5(23-11)2-22-24(19,20)21/h3-5,7-8,11,17-18H,2H2,1H3,(H,12,13,14)(H2,19,20,21)",361.247801,-5.95929332595,-0.9469561997399998,5.01233712621,3.7682664891285222
000004404,OCC1OC(CC1O)n1cnc2c1ncnc2NC(=O)COc1ccccc1,C18H19N5O5,"InChI=1S/C18H19N5O5/c24-7-13-12(25)6-15(28-13)23-10-21-16-17(19-9-20-18(16)23)22-14(26)8-27-11-4-2-1-3-5-11/h1-5,9-10,12-13,15,24-25H,6-8H2,(H,19,20,22,26)",385.37396,-5.9919469880100005,-1.3524058369850005,4.639541151025,6.849758397422058
000004405,OCC1OC(C(C1O)O)n1cnc2c1ncnc2Nc1ccccc1,C16H17N5O4,"InChI=1S/C16H17N5O4/c22-6-10-12(23)13(24)16(25-10)21-8-19-11-14(17-7-18-15(11)21)20-9-4-2-1-3-5-9/h1-5,7-8,10,12-13,16,22-24H,6H2,(H,17,18,20)",343.33728,-5.619151012825,-1.2299546042599996,4.389196408565001,2.897023602635988
000004407,O=C1C=CC(=O)c2c1c(O)c(c(c2O)Cl)Cl,C10H4Cl2O4,"InChI=1S/C10H4Cl2O4/c11-7-8(12)10(16)6-4(14)2-1-3(13)5(6)9(7)15/h1-2,15-16H",259.04236,-6.2803876695400005,-3.24903937497,3.0313482945700003,0.4406334293151168
000004408,OC(=O)C(CP(=O)(CC(C(=O)O)CCC(=O)O)O)CCC(=O)O,C12H19O10P,"InChI=1S/C12H19O10P/c13-9(14)3-1-7(11(17)18)5-23(21,22)6-8(12(19)20)2-4-10(15)16/h7-8H,1-6H2,(H,13,14)(H,15,16)(H,17,18)(H,19,20)(H,21,22)",354.247021,-6.9661145728000005,-0.7728033354199999,6.1933112373800006,1.6472387179219046
000004409,COc1ccc2c(c1)ccc(c2)CCC(=O)C,C15H16O2,"InChI=1S/C15H16O2/c1-11(16)3-4-12-5-6-14-10-15(17-2)8-7-13(14)9-12/h5-10H,3-4H2,1-2H3",228.28634,-5.336152608305,-0.8843700141250004,4.45178259418,2.893560143008263
000004410,OC1CCN(CC1)c1c(F)cc2c3c1CCC(n3cc(c2=O)C(=O)O)C,C19H21FN2O4,"InChI=1S/C19H21FN2O4/c1-10-2-3-12-16-13(18(24)14(19(25)26)9-22(10)16)8-15(20)17(12)21-6-4-11(23)5-7-21/h8-11,23H,2-7H2,1H3,(H,25,26)",360.3794432,-6.250455145985,-1.7796245822700003,4.470830563714999,8.633606348048248
000004411,OC(COc1cccc2c1CC(O)C(C2)O)CNC(C)(C)C,C17H27NO4,"InChI=1S/C17H27NO4/c1-17(2,3)18-9-12(19)10-22-16-6-4-5-11-7-14(20)15(21)8-13(11)16/h4-6,12,14-15,18-21H,7-10H2,1-3H3",309.40058,-5.8694957552850004,-0.016326831029999767,5.853168924255001,2.0349608066380545
000004413,NC(=Nc1ccc(cc1)C(=O)Oc1ccc2c(c1)ccc(c2)C(=N)N)N,C19H17N5O2,"InChI=1S/C19H17N5O2/c20-17(21)14-2-1-13-10-16(8-5-12(13)9-14)26-18(25)11-3-6-15(7-4-11)24-19(22)23/h1-10H,(H3,20,21)(H4,22,23,24)",347.37058,-5.668131505915,-1.3687326680150003,4.2993988379,7.914193550055432
000004415,CCOc1ccc2c(c1NC(=O)C1C(=O)N3C1SC(C3C(=O)O)(C)C)cccc2,C21H22N2O5S,"InChI=1S/C21H22N2O5S/c1-4-28-13-10-9-11-7-5-6-8-12(11)15(13)22-17(24)14-18(25)23-16(20(26)27)21(2,3)29-19(14)23/h5-10,14,16,19H,4H2,1-3H3,(H,22,24)(H,26,27)",414.47478,-5.62187215133,-1.08301312499,4.53885902634,3.7689924678462807
000004416,COc1ccc2c(c1)CCC(=C2c1ccc(cc1)OCCN1CCCC1)c1ccccc1,C29H31NO2,"InChI=1S/C29H31NO2/c1-31-26-14-16-28-24(21-26)11-15-27(22-7-3-2-4-8-22)29(28)23-9-12-25(13-10-23)32-20-19-30-17-5-6-18-30/h2-4,7-10,12-14,16,21H,5-6,11,15,17-20H2,1H3",425.56194,-4.947029802089999,-0.541506562495,4.4055232395949995,2.3289204671561885
000004417,CCN(CCOC(=O)C(Cc1cccc2c1cccc2)CC1CCCO1)CC,C24H33NO3,"InChI=1S/C24H33NO3/c1-3-25(4-2)14-16-28-24(26)21(18-22-12-8-15-27-22)17-20-11-7-10-19-9-5-6-13-23(19)20/h5-7,9-11,13,21-22H,3-4,8,12,14-18H2,1-2H3",383.52372,-5.72527541452,-0.9932155543250003,4.732059860195,0.8796520397185469
000004418,COc1ccccc1N1CCN(CC1)CC(COc1cccc2c1cccc2)O,C24H28N2O3,"InChI=1S/C24H28N2O3/c1-28-24-11-5-4-10-22(24)26-15-13-25(14-16-26)17-20(27)18-29-23-12-6-8-19-7-2-3-9-21(19)23/h2-12,20,27H,13-18H2,1H3",392.49072,-5.270845284185,-0.5877659170800005,4.683079367105,3.7063747757355836
000004419,OC1CCC2(C34C1Oc1c4c(CC2N(CC3)CC2CCC2)ccc1O)O,C21H27NO4,"InChI=1S/C21H27NO4/c23-14-5-4-13-10-16-21(25)7-6-15(24)19-20(21,17(13)18(14)26-19)8-9-22(16)11-12-2-1-3-12/h4-5,12,15-16,19,23-25H,1-3,6-11H2",357.44338,-5.4722095335550005,0.1034032631899997,5.575612796745,3.215437690845525
000004421,CCn1cc(C(=O)O)c(=O)c2c1nc(C)cc2,C12H12N2O3,"InChI=1S/C12H12N2O3/c1-3-14-6-9(12(16)17)10(15)8-5-4-7(2)13-11(8)14/h4-6H,3H2,1-2H3,(H,16,17)",232.23528,-6.51440558097,-2.005479078185,4.508926502785,8.514432308612536
000004422,C=C1CCC2(C34C1Oc1c4c(CC2N(CC3)CC2CC2)ccc1O)O,C21H25NO3,"InChI=1S/C21H25NO3/c1-12-6-7-21(24)16-10-14-4-5-15(23)18-17(14)20(21,19(12)25-18)8-9-22(16)11-13-2-3-13/h4-5,13,16,19,23-24H,1-3,6-11H2",339.4281,-5.25723959166,0.03809593906999975,5.29533553073,3.0020036705262374
000004423,C=CCN1CCC23C4C1Cc1c3c(OC2C(C=C4)O)c(cc1)O,C19H21NO3,"InChI=1S/C19H21NO3/c1-2-8-20-9-7-19-12-4-6-15(22)18(19)23-17-14(21)5-3-11(16(17)19)10-13(12)20/h2-6,12-13,15,18,21-22H,1,7-10H2",311.37494,-5.270845284185,0.11700895571499981,5.3878542399,2.5217996824137323
000004425,C=CCN1CCC23C4(C1Cc1c3c(OC2C(=O)CC4)c(cc1)O)O,C19H21NO4,"InChI=1S/C19H21NO4/c1-2-8-20-9-7-18-15-11-3-4-12(21)16(15)24-17(18)13(22)5-6-19(18,23)14(20)10-11/h2-4,14,17,21,23H,1,5-10H2",327.37434,-5.755207938075,-0.6068138866149999,5.14839405146,3.462269966747827
000004426,C=CCN1CCC23C4(C1Cc1c3c(OC2C(=NNC(=O)c2ccccc2)CC4)c(cc1)O)O,C26H27N3O4,"InChI=1S/C26H27N3O4/c1-2-13-29-14-12-25-21-17-8-9-19(30)22(21)33-23(25)18(10-11-26(25,32)20(29)15-17)27-28-24(31)16-6-4-3-5-7-16/h2-9,20,23,30,32H,1,10-15H2,(H,28,31)",445.51028,-5.804188431165,-0.6585155182099998,5.145672912955,5.086338671039808
000004427,NCCCCC(C(=O)CCl)NS(=O)(=O)c1ccc(cc1)C,C14H21ClN2O3S,"InChI=1S/C14H21ClN2O3S/c1-11-5-7-12(8-6-11)21(19,20)17-13(14(18)10-15)4-2-3-9-16/h5-8,13,17H,2-4,9-10,16H2,1H3",332.84614,-6.125282774755,-1.385059499045,4.74022327571,3.7919961888220564
000004428,O=C1CCC2(C34C1Oc1c4c(CC2N(CC3)CC2CC2)ccc1O)O,C20H23NO4,"InChI=1S/C20H23NO4/c22-13-4-3-12-9-15-20(24)6-5-14(23)18-19(20,16(12)17(13)25-18)7-8-21(15)10-11-1-2-11/h3-4,11,15,18,22,24H,1-2,5-10H2",341.40092,-5.640920120865,-0.5714390860499998,5.069481034815,3.0180950106424747
000004429,Oc1ccc2c3c1OC1C43CCN(C(C2)C4(O)Cc2c1oc1c2cccc1)CC1CC1,C26H25NO4,"InChI=1S/C26H25NO4/c28-18-8-7-15-11-20-26(29)12-17-16-3-1-2-4-19(16)30-22(17)24-25(26,21(15)23(18)31-24)9-10-27(20)13-14-5-6-14/h1-4,7-8,14,20,24,28-29H,5-6,9-13H2",415.481,-5.570170519735,-0.5959293325950004,4.97424118714,1.9225223987176325
000004431,COc1ccccc1N1CCN(CC1)CCCCN1C(=O)c2c(C1=O)cccc2,C23H27N3O3,"InChI=1S/C23H27N3O3/c1-29-21-11-5-4-10-20(21)25-16-14-24(15-17-25)12-6-7-13-26-22(27)18-8-2-3-9-19(18)23(26)28/h2-5,8-11H,6-7,12-17H2,1H3",393.47878,-4.514368779795,-2.228612435595,2.2857563442,1.7584450360713582
000004433,O=C(OC1CCC2C1(C)CCC1C2CCC2=CC(=O)CCC12)CCC1CCCCC1,C27H40O3,"InChI=1S/C27H40O3/c1-27-16-15-22-21-11-9-20(28)17-19(21)8-10-23(22)24(27)12-13-25(27)30-26(29)14-7-18-5-3-2-4-6-18/h17-18,21-25H,2-16H2,1H3",412.6047,-6.21508034542,-1.140157033595,5.074923311825,3.6693665687724635
000004434,O=C(OC1CCC2C1(C)CCC1C2CCC2=CC(=O)CCC12)CCc1ccco1,C25H32O4,"InChI=1S/C25H32O4/c1-25-13-12-20-19-8-5-17(26)15-16(19)4-7-21(20)22(25)9-10-23(25)29-24(27)11-6-18-3-2-14-28-18/h2-3,14-15,19-23H,4-13H2,1H3",396.51918,-5.956572187445,-1.1700895571499998,4.7864826302950005,3.1800936070268437
000004435,O=C(OC1CCC2C1(C)CCC1C2CCC2=CC(=O)CCC12)CCc1ccccc1,C27H34O3,"InChI=1S/C27H34O3/c1-27-16-15-22-21-11-9-20(28)17-19(21)8-10-23(22)24(27)12-13-25(27)30-26(29)14-7-18-5-3-2-4-6-18/h2-6,17,21-25H,7-16H2,1H3",406.55706,-6.22596489944,-1.1510415876150004,5.074923311825,3.881610490756253
000004436,C1CN=C(N1)Cc1cccc2c1cccc2,C14H14N2,"InChI=1S/C14H14N2/c1-2-7-13-11(4-1)5-3-6-12(13)10-14-15-8-9-16-14/h1-7H,8-10H2,(H,15,16)",210.27436,-5.81235184668,-1.1265513410699999,4.6858005056100005,2.466781692282072
000004438,OS(=O)(=O)c1ccc2c(c1)cc(cc2S(=O)(=O)O)S(=O)(=O)O,C10H8O9S3,"InChI=1S/C10H8O9S3/c11-20(12,13)7-1-2-9-6(3-7)4-8(21(14,15)16)5-10(9)22(17,18)19/h1-5H,(H,11,12,13)(H,14,15,16)(H,17,18,19)",368.36012,-7.692658553635001,-3.2191068514150007,4.47355170222,1.8130962419987529
000004440,CNS(=O)(=O)CCc1ccc2c(c1)c(c[nH]2)C1CCN(CC1)C,C17H25N3O2S,"InChI=1S/C17H25N3O2S/c1-18-23(21,22)10-7-13-3-4-17-15(11-13)16(12-19-17)14-5-8-20(2)9-6-14/h3-4,11-12,14,18-19H,5-10H2,1-2H3",335.4643,-5.466767256545,-0.3727959751850003,5.09397128136,4.7102512745850404
000004442,O=C(c1cn(c2c1cccc2)C)C1CCc2c(C1)[nH]cn2,C17H17N3O,"InChI=1S/C17H17N3O/c1-20-9-13(12-4-2-3-5-16(12)20)17(21)11-6-7-14-15(8-11)19-10-18-14/h2-5,9-11H,6-8H2,1H3,(H,18,19)",279.33638,-5.374248547375,-1.06124401695,4.313004530425,3.9721809492672913
000004443,CC(C1CCC(CC1)C(=O)NC(C(=O)O)Cc1ccccc1)C,C19H27NO3,"InChI=1S/C19H27NO3/c1-13(2)15-8-10-16(11-9-15)18(21)20-17(19(22)23)12-14-6-4-3-5-7-14/h3-7,13,15-17H,8-12H2,1-2H3,(H,20,21)(H,22,23)",317.42258,-6.723933245855,-0.3727959751850003,6.35113727067,3.2121110295654476
000004445,COc1ccc2c(c1)[nH]c(n2)S(=O)Cc1ccccc1N(C)C,C17H19N3O2S,"InChI=1S/C17H19N3O2S/c1-20(2)16-7-5-4-6-12(16)11-23(21)17-18-14-9-8-13(22-3)10-15(14)19-17/h4-10H,11H2,1-3H3,(H,18,19)",329.41666,-5.477651810565001,-0.7836878894400003,4.693963921125,2.4715522031464356
000004447,N#Cc1ccc(cc1)NC(=NCC(=O)O)NC(c1ccccc1)c1ccccc1,C23H20N4O2,"InChI=1S/C23H20N4O2/c24-15-17-11-13-20(14-12-17)26-23(25-16-21(28)29)27-22(18-7-3-1-4-8-18)19-9-5-2-6-10-19/h1-14,22H,16H2,(H,28,29)(H2,25,26,27)",384.4305,-5.9348030794049995,-1.1238302025650002,4.810972876839999,5.531692515090386
000004448,O=C(OCc1ccccc1)NCCCC(C(=O)O)NS(=O)(=O)c1ccc(cc1)C,C20H24N2O6S,"InChI=1S/C20H24N2O6S/c1-15-9-11-17(12-10-15)29(26,27)22-18(19(23)24)8-5-13-21-20(25)28-14-16-6-3-2-4-7-16/h2-4,6-7,9-12,18,22H,5,8,13-14H2,1H3,(H,21,25)(H,23,24)",420.47936,-6.5470592430300005,-1.5755391943950006,4.971520048635,5.508275526140736
000004449,CCc1nn(c(=O)n1CCOc1ccccc1)CCCN1CCN(CC1)c1cccc(c1)Cl,C25H32ClN5O2,"InChI=1S/C25H32ClN5O2/c1-2-24-27-31(25(32)30(24)18-19-33-23-10-4-3-5-11-23)13-7-12-28-14-16-29(17-15-28)22-9-6-8-21(26)20-22/h3-6,8-11,20H,2,7,12-19H2,1H3",470.00688,-5.189211129035001,-0.19864311086500042,4.99056801817,3.9926714234112732
000004450,CN1CCOC(c2c(C1)cccc2)c1ccccc1,C17H19NO,"InChI=1S/C17H19NO/c1-18-11-12-19-17(14-7-3-2-4-8-14)16-10-6-5-9-15(16)13-18/h2-10,17H,11-13H2,1H3",253.33886,-5.483094087575,-0.3945650832250003,5.08852900435,1.4433355519750075
000004452,COc1cc(NC)c(cc1C(=O)NC1CCN(C1C)Cc1ccccc1)Cl,C21H26ClN3O2,"InChI=1S/C21H26ClN3O2/c1-14-18(9-10-25(14)13-15-7-5-4-6-8-15)24-21(26)16-11-17(22)19(23-2)12-20(16)27-3/h4-8,11-12,14,18,23H,9-10,13H2,1-3H3,(H,24,26)",387.90304,-5.37152740887,-0.4489878533249998,4.922539555545,6.1943800710370525
000004455,OCC(C(c1cnc2c(n1)c(=O)nc([nH]2)N)O)O,C9H11N5O4,"InChI=1S/C9H11N5O4/c10-9-13-7-5(8(18)14-9)12-3(1-11-7)6(17)4(16)2-15/h1,4,6,15-17H,2H2,(H3,10,11,13,14,18)",253.21474,-6.560664935555001,-2.0544595712749993,4.506205364280001,5.901479543075278
000004458,OCC=C(CCC=C(C)C)C,C10H18O,"InChI=1S/C10H18O/c1-9(2)5-4-6-10(3)7-8-11/h5,7,11H,4,6,8H2,1-3H3",154.24932,-6.103513666715,0.5115740389400001,6.615087705655,1.8875362473695705
000004459,CCCCCOc1ccccc1C(=CSC)n1cncc1,C17H22N2OS,"InChI=1S/C17H22N2OS/c1-3-4-7-12-20-17-9-6-5-8-15(17)16(13-21-2)19-11-10-18-14-19/h5-6,8-11,13-14H,3-4,7,12H2,1-2H3",302.43438,-5.45860384103,-0.7755244739250005,4.683079367105,5.202135257166811
000004460,CCNC1CC(N)C(C(C1OC1OCC(C(C1O)NC)(C)O)O)OC1OC(=CCC1N)CN,C21H41N5O7,"InChI=1S/C21H41N5O7/c1-4-26-13-7-12(24)16(32-19-11(23)6-5-10(8-22)31-19)14(27)17(13)33-20-15(28)18(25-3)21(2,29)9-30-20/h5,11-20,25-29H,4,6-9,22-24H2,1-3H3",475.57954,-5.815072985185,0.7020537342899997,6.517126719475,1.178566465324294
000004461,NC(=N)CCNC(=O)c1cc(cn1C)NC(=O)c1cc(cn1C)NC(=O)CN=C(N)N,C18H26N10O3,"InChI=1S/C18H26N10O3/c1-27-9-11(6-12(27)16(30)23-4-3-14(19)20)26-17(31)13-5-10(8-28(13)2)25-15(29)7-24-18(21)22/h5-6,8-9H,3-4,7H2,1-2H3,(H3,19,20)(H,23,30)(H,25,29)(H,26,31)(H4,21,22,24)",430.46424,-5.20281682156,-0.7074960113,4.49532081026,2.900403049675338
000004462,COC1=C(OC)C(=O)C(=C(C1=O)CC=C(C)C)C,C14H18O4,"InChI=1S/C14H18O4/c1-8(2)6-7-10-9(3)11(15)13(17-4)14(18-5)12(10)16/h6H,7H2,1-5H3",250.29032,-5.6463623978749995,-2.8952913693199998,2.7510710285549997,1.206372465910508
000004463,Cc1ccnc2c1[nH]c(=O)c1c(n2C2CC2)nccc1,C15H14N4O,"InChI=1S/C15H14N4O/c1-9-6-8-17-14-12(9)18-15(20)11-3-2-7-16-13(11)19(14)10-4-5-10/h2-3,6-8,10H,4-5H2,1H3,(H,18,20)",266.29786,-5.727996553025,-1.341521282965,4.38647527006,2.7639724815071878
000004472,O=C(NCc1ccccc1)CCNNC(=O)c1ccncc1,C16H18N4O2,"InChI=1S/C16H18N4O2/c21-15(18-12-13-4-2-1-3-5-13)8-11-19-20-16(22)14-6-9-17-10-7-14/h1-7,9-10,19H,8,11-12H2,(H,18,21)(H,20,22)",298.33972,-6.44909825685,-1.3469635599750003,5.102134696875,1.2004368422878398
000004474,COC(=O)C1=C(C)NC(=C(C1c1cccc(c1)[N+](=O)[O-])C(=O)OCCN(Cc1ccccc1)C)C,C26H29N3O6,"InChI=1S/C26H29N3O6/c1-17-22(25(30)34-4)24(20-11-8-12-21(15-20)29(32)33)23(18(2)27-17)26(31)35-14-13-28(3)16-19-9-6-5-7-10-19/h5-12,15,24,27H,13-14,16H2,1-4H3",479.52496,-5.84500550874,-2.092555510345,3.752449998395,6.552430474504098
000004477,Clc1ccc(c(c1)C(=O)Nc1ccc(cc1Cl)[N+](=O)[O-])O,C13H8Cl2N2O4,"InChI=1S/C13H8Cl2N2O4/c14-7-1-4-12(18)9(5-7)13(19)16-11-3-2-8(17(20)21)6-10(11)15/h1-6,18H,(H,16,19)",327.11962,-6.4463771183450005,-2.63406207284,3.8123150455050006,4.437976534800629
000004484,OC1C(O)C(OC1[n+]1cccc(c1)C(=O)O)COP(=O)(O)[O-],C11H14NO9P,"InChI=1S/C11H14NO9P/c13-8-7(5-20-22(17,18)19)21-10(9(8)14)12-3-1-2-6(4-12)11(15)16/h1-4,7-10,13-14H,5H2,(H2-,15,16,17,18,19)",335.203921,-6.598760874625,-2.91706047736,3.681700397265,13.804460033626052
000004485,COC(=O)C1=C(C)NC(=C(C1c1ccccc1[N+](=O)[O-])C(=O)OC)C,C17H18N2O6,"InChI=1S/C17H18N2O6/c1-9-13(16(20)24-3)15(14(10(2)18-9)17(21)25-4)11-7-5-6-8-12(11)19(22)23/h5-8,15,18H,1-4H3",346.33462,-5.722554276015,-2.02452704772,3.698027228295,4.27684713127673
000004486,OCCN(CCNc1cc(=O)n(c(=O)n1C)C)CCCc1ccc(cc1)[N+](=O)[O-],C19H27N5O5,"InChI=1S/C19H27N5O5/c1-21-17(14-18(26)22(2)19(21)27)20-9-11-23(12-13-25)10-3-4-15-5-7-16(8-6-15)24(28)29/h5-8,14,20,25H,3-4,9-13H2,1-2H3",405.44818,-5.923918525385,-2.3646693608450002,3.5592491645399997,8.141149831602105
000004487,O=C(c1cccnc1)Nc1c(=O)n(n(c1C)C)c1ccccc1,C17H16N4O2,"InChI=1S/C17H16N4O2/c1-12-15(19-16(22)13-7-6-10-18-11-13)17(23)21(20(12)2)14-8-4-3-5-9-14/h3-11H,1-2H3,(H,19,22)",308.33454,-5.7143908605,-1.2000220807049997,4.514368779795,1.850778941436281
000004488,OC(=O)c1cccnc1Nc1cccc(c1)C(F)(F)F,C13H9F3N2O2,"InChI=1S/C13H9F3N2O2/c14-13(15,16)8-3-1-4-9(7-8)18-11-10(12(19)20)5-2-6-17-11/h1-7H,(H,17,18)(H,19,20)",282.2179696,-5.9919469880100005,-1.9646620006099997,4.027284987400001,3.9318296173239755
000004492,OC(=O)C(C1OC(C(C1O)O)N1C=CC(=O)CC1=O)NC(=O)C(C(C(c1ccc(cn1)O)C)C)N,C22H28N4O9,"InChI=1S/C22H28N4O9/c1-9(13-4-3-12(28)8-24-13)10(2)15(23)20(32)25-16(22(33)34)19-17(30)18(31)21(35-19)26-6-5-11(27)7-14(26)29/h3-6,8-10,15-19,21,28,30-31H,7,23H2,1-2H3,(H,25,32)(H,33,34)",492.47912,-6.2232437609349995,-2.0680652638000003,4.155178497134999,2.817493472313645
000004493,O=C1NC(C(=O)N1c1ccc(c(c1)C(F)(F)F)[N+](=O)[O-])(C)C,C12H10F3N3O4,"InChI=1S/C12H10F3N3O4/c1-11(2)9(19)17(10(20)16-11)6-3-4-8(18(21)22)7(5-6)12(13,14)15/h3-5H,1-2H3,(H,16,20)",317.2207096,-7.178363376189999,-2.5034474246,4.674915951589999,10.024226865857786
000004494,COC(=O)C1=C(C#N)NC(=C(C1c1cccc(c1)[N+](=O)[O-])C(=O)OC(C)C)C,C19H19N3O6,"InChI=1S/C19H19N3O6/c1-10(2)28-19(24)15-11(3)21-14(9-20)17(18(23)27-4)16(15)12-6-5-7-13(8-12)22(25)26/h5-8,10,16,21H,1-4H3",385.37066,-6.32392588562,-2.47079376254,3.8531321230799995,2.5056282364087856
000004495,[O-][N+](=O)c1ccc(c(c1)Oc1ccccc1)NS(=O)(=O)C,C13H12N2O5S,"InChI=1S/C13H12N2O5S/c1-21(18,19)14-12-8-7-10(15(16)17)9-13(12)20-11-5-3-2-4-6-11/h2-9,14H,1H3",308.30978,-6.49263647293,-2.2612660976549996,4.2313703752750005,6.251157911229327
000004496,CN1C(=O)CN=C(c2c1ccc(c2)[N+](=O)[O-])c1ccccc1,C16H13N3O3,"InChI=1S/C16H13N3O3/c1-18-14-8-7-12(19(21)22)9-13(14)16(17-10-15(18)20)11-5-3-2-4-6-11/h2-9H,10H2,1H3",295.29272,-6.6695104757550006,-2.495284009085,4.17422646667,1.9567538483902365
000004497,COCCOC(=O)C1=C(C)NC(=C(C1c1cccc(c1)[N+](=O)[O-])C(=O)OC(C)C)C,C21H26N2O7,"InChI=1S/C21H26N2O7/c1-12(2)30-21(25)18-14(4)22-13(3)17(20(24)29-10-9-28-5)19(18)15-7-6-8-16(11-15)23(26)27/h6-8,11-12,19,22H,9-10H2,1-5H3",418.44034,-5.853168924255001,-2.25310268214,3.6000662421150005,5.788200396693432
000004498,OC(=O)C1CCCNC1,C6H11NO2,"InChI=1S/C6H11NO2/c8-6(9)5-2-1-3-7-4-5/h5,7H,1-4H2,(H,8,9)",129.15704,-6.059975450635,0.19592197235999986,6.255897422995,4.834135210401132
000004499,COC(=O)C1=C(C)NC(=C(C1c1ccccc1[N+](=O)[O-])C(=O)OCC(C)C)C,C20H24N2O6,"InChI=1S/C20H24N2O6/c1-11(2)10-28-20(24)17-13(4)21-12(3)16(19(23)27-5)18(17)14-8-6-7-9-15(14)22(25)26/h6-9,11,18,21H,10H2,1-5H3",388.41436,-5.56744938123,-2.1224880339,3.4449613473300005,6.430521091694592
000004500,CNCCC(c1ccccc1)Oc1ccccc1OC,C17H21NO2,"InChI=1S/C17H21NO2/c1-18-13-12-15(14-8-4-3-5-9-14)20-17-11-7-6-10-16(17)19-2/h3-11,15,18H,12-13H2,1-2H3",271.35414,-5.44771928701,-0.36191142116499986,5.085807865845,2.54039612512793
000004506,O=C1CN=C(c2c(N1)ccc(c2)[N+](=O)[O-])c1ccccc1,C15H11N3O3,"InChI=1S/C15H11N3O3/c19-14-9-16-15(10-4-2-1-3-5-10)12-8-11(18(20)21)6-7-13(12)17-14/h1-8H,9H2,(H,17,19)",281.26614,-6.726654384360001,-2.5007262860949995,4.225928098265001,1.3212678450556496
000004507,CCOC(=O)C1=C(C)NC(=C(C1c1cccc(c1)[N+](=O)[O-])C(=O)OC)C,C18H20N2O6,"InChI=1S/C18H20N2O6/c1-5-26-18(22)15-11(3)19-10(2)14(17(21)25-4)16(15)12-7-6-8-13(9-12)20(23)24/h6-9,16,19H,5H2,1-4H3",360.3612,-5.866774616780001,-2.1224880339,3.744286582880001,6.008481262892146
000004509,O=C1NC(=O)N(C1)N=Cc1ccc(o1)[N+](=O)[O-],C8H6N4O5,"InChI=1S/C8H6N4O5/c13-6-4-11(8(14)10-6)9-3-5-1-2-7(17-5)12(15)16/h1-3H,4H2,(H,10,13,14)",238.15704,-6.438213702830001,-2.71025395098,3.7279597518500007,5.441695758818753
000004510,[O-][N+](=O)OC(CO[N+](=O)[O-])CO[N+](=O)[O-],C3H5N3O9,"InChI=1S/C3H5N3O9/c7-4(8)13-1-3(15-6(11)12)2-14-5(9)10/h3H,1-2H2",227.0865,-8.851863556765,-2.41637099244,6.435492564325,2.4453184977311238
000004511,NC(=O)c1cc(cc(c1)[N+](=O)[O-])[N+](=O)[O-],C7H5N3O5,"InChI=1S/C7H5N3O5/c8-7(11)4-1-5(9(12)13)3-6(2-4)10(14)15/h1-3H,(H2,8,11)",211.1317,-7.61374553699,-3.2055011588900006,4.408244378099999,4.548471442689511
000004513,CNC(=C[N+](=O)[O-])NCCSCc1csc(n1)CN(C)C,C12H21N5O2S2,"InChI=1S/C12H21N5O2S2/c1-13-11(6-17(18)19)14-4-5-20-8-10-9-21-12(15-10)7-16(2)3/h6,9,13-14H,4-5,7-8H2,1-3H3",331.45744,-5.74704452256,-1.1728106956549995,4.574233826905001,4.691737912741823
000004514,CCN(Cc1nccn1c1ccc(cc1C(=O)c1ccccc1Cl)[N+](=O)[O-])CC,C21H21ClN4O3,"InChI=1S/C21H21ClN4O3/c1-3-24(4-2)14-20-23-11-12-25(20)19-10-9-15(26(28)29)13-17(19)21(27)16-7-5-6-8-18(16)22/h5-13H,3-4,14H2,1-2H3",412.86944,-6.1143982207350005,-2.489841732075,3.6245564886600006,5.1958327506528725
000004515,OC(=O)C1=CCCN(C1)CCON=C(c1ccccc1)c1ccccc1,C21H22N2O3,"InChI=1S/C21H22N2O3/c24-21(25)19-12-7-13-23(16-19)14-15-26-22-20(17-8-3-1-4-9-17)18-10-5-2-6-11-18/h1-6,8-12H,7,13-16H2,(H,24,25)",350.41098,-5.782419323125,-1.2081854962200005,4.574233826904999,4.52186976763219