mol_id,SMILES,formula,inchi,mass,HOMO(eV),LUMO(eV),GAP(eV),dipole_moment
000005564,Clc1ccc(c(c1)O)Oc1ccc(cc1Cl)Cl,C12H7Cl3O2,"InChI=1S/C12H7Cl3O2/c13-7-1-3-11(9(15)5-7)17-12-4-2-8(14)6-10(12)16/h1-6,16H",289.54178,-6.152494159805,-1.06124401695,5.091250142855,2.803878193054934
000005565,NCCNCCNCCN,C6H18N4,"InChI=1S/C6H18N4/c7-1-3-9-5-6-10-4-2-8/h9-10H,1-8H2",146.23392,-5.679016059935,1.7714611667550004,7.45047722669,0.49096249262443664
000005566,CN1CCN(CC1)CCCN1c2ccccc2Sc2c1cc(cc2)C(F)(F)F,C21H24F3N3S,"InChI=1S/C21H24F3N3S/c1-25-11-13-26(14-12-25)9-4-10-27-17-5-2-3-6-19(17)28-20-8-7-16(15-18(20)27)21(22,23)24/h2-3,5-8,15H,4,9-14H2,1H3",407.4955696,-4.944308663585,-0.97416758479,3.970141078795,3.1440939334789286
000005567,Fc1ccc(cc1)C(=O)CCCN1CCC(CC1)(O)c1cccc(c1)C(F)(F)F,C22H23F4NO2,"InChI=1S/C22H23F4NO2/c23-19-8-6-16(7-9-19)20(28)5-2-12-27-13-10-21(29,11-14-27)17-3-1-4-18(15-17)22(24,25)26/h1,3-4,6-9,15,29H,2,5,10-14H2",409.4171328,-6.386512071235,-1.4694147927000003,4.917097278535,4.614417858400559
000005568,CN(CCCN1c2ccccc2Sc2c1cc(cc2)C(F)(F)F)C,C18H19F3N2S,"InChI=1S/C18H19F3N2S/c1-22(2)10-5-11-23-14-6-3-4-7-16(14)24-17-9-8-13(12-15(17)23)18(19,20)21/h3-4,6-9,12H,5,10-11H2,1-2H3",352.4170696,-5.0613176193000005,-1.0013789698400002,4.05993864946,4.0196848697461345
000005569,CCCN(c1c(cc(cc1[N+](=O)[O-])C(F)(F)F)[N+](=O)[O-])CCC,C13H16F3N3O4,"InChI=1S/C13H16F3N3O4/c1-3-5-17(6-4-2)12-10(18(20)21)7-9(13(14,15)16)8-11(12)19(22)23/h7-8H,3-6H2,1-2H3",335.2790496,-6.5851551821,-2.9605986934399997,3.6245564886600006,2.831799128030447
000005570,C[n+]1cccc(c1)C(=O)[O-],C7H7NO2,"InChI=1S/C7H7NO2/c1-8-4-2-3-6(5-8)7(9)10/h2-5H,1H3",137.13598,-5.197374544550001,-2.6422254883550003,2.5551490561950003,13.333865455948548
000005572,OC(c1ccccc1)(C1CCCCC1)CCN1CCCCC1,C20H31NO,"InChI=1S/C20H31NO/c22-20(18-10-4-1-5-11-18,19-12-6-2-7-13-19)14-17-21-15-8-3-9-16-21/h1,4-5,10-11,19,22H,2-3,6-9,12-17H2",301.46624,-5.37152740887,0.144220340765,5.515747749635,1.3338790834146101
000005573,CCC(c1ccccc1)(N(C)C)COC(=O)c1cc(OC)c(c(c1)OC)OC,C22H29NO5,"InChI=1S/C22H29NO5/c1-7-22(23(2)3,17-11-9-8-10-12-17)15-28-21(24)16-13-18(25-4)20(27-6)19(14-16)26-5/h8-14H,7,15H2,1-6H3",387.46936,-5.455882702525001,-0.9224659531950001,4.533416749330001,1.8611402316381214
000005574,CN(CC(CN1c2ccccc2Sc2c1cccc2)C)C,C18H22N2S,"InChI=1S/C18H22N2S/c1-14(12-19(2)3)13-20-15-8-4-6-10-17(15)21-18-11-7-5-9-16(18)20/h4-11,14H,12-13H2,1-3H3",298.44568,-4.704848475145,-0.4625935458499999,4.242254929295,1.353165162324984
000005576,O=C1OC(C(=O)N1C)(C)C,C6H9NO3,InChI=1S/C6H9NO3/c1-6(2)4(8)7(3)5(9)10-6/h1-3H3,143.14056,-7.483130888750001,-0.5088529004350004,6.974277988315,1.8515041936763201
000005577,COc1cc(cc(c1OC)OC)C(=O)NCc1ccc(cc1)OCCN(C)C,C21H28N2O5,"InChI=1S/C21H28N2O5/c1-23(2)10-11-28-17-8-6-15(7-9-17)14-22-21(24)16-12-18(25-3)20(27-5)19(13-16)26-4/h6-9,12-13H,10-11,14H2,1-5H3,(H,22,24)",388.45742,-5.53479571917,-0.12789350973500024,5.406902209435,3.3848566021031083
000005578,COc1cc(Cc2cnc(nc2N)N)cc(c1OC)OC,C14H18N4O3,"InChI=1S/C14H18N4O3/c1-19-10-5-8(6-11(20-2)12(10)21-3)4-9-7-17-14(16)18-13(9)15/h5-7H,4H2,1-3H3,(H4,15,16,17,18)",290.31772,-5.366085131859999,-0.22313335741000007,5.142951774449999,3.3290951154092907
000005581,COc1cc(CC2NCCc3c2cc(O)c(c3)O)cc(c1OC)OC,C19H23NO5,"InChI=1S/C19H23NO5/c1-23-17-7-11(8-18(24-2)19(17)25-3)6-14-13-10-16(22)15(21)9-12(13)4-5-20-14/h7-10,14,20-22H,4-6H2,1-3H3",345.38962,-5.1837688520250005,0.1251723712299997,5.308941223255,4.821090139869198
000005583,COc1cc(NCc2ccc3c(c2C)c(N)nc(n3)N)cc(c1OC)OC,C19H23N5O3,"InChI=1S/C19H23N5O3/c1-10-11(5-6-13-16(10)18(20)24-19(21)23-13)9-22-12-7-14(25-2)17(27-4)15(8-12)26-3/h5-8,22H,9H2,1-4H3,(H4,20,21,23,24)",369.41762,-4.65314684355,-1.12110906406,3.53203777949,3.769350517442627
000005584,CN(CC(CN1c2ccccc2CCc2c1cccc2)C)C,C20H26N2,"InChI=1S/C20H26N2/c1-16(14-21(2)3)15-22-19-10-6-4-8-17(19)12-13-18-9-5-7-11-20(18)22/h4-11,16H,12-15H2,1-3H3",294.43384,-5.05043306528,-0.1251723712299997,4.92526069405,0.7196183820039619
000005585,Cc1cc2c(o1)c(C)c1c(c2)c(C)cc(=O)o1,C14H12O3,"InChI=1S/C14H12O3/c1-7-4-12(15)17-14-9(3)13-10(6-11(7)14)5-8(2)16-13/h4-6H,1-3H3",228.24328,-5.6817371984400005,-1.6354042415050003,4.046332956935,6.169720688491255
000005586,O=C(c1ccc(c(c1)S(=O)(=O)N)Cl)NN1CC2C(C1)C1CC2CC1,C16H20ClN3O3S,"InChI=1S/C16H20ClN3O3S/c17-14-4-3-11(6-15(14)24(18,22)23)16(21)19-20-7-12-9-1-2-10(5-9)13(12)8-20/h3-4,6,9-10,12-13H,1-2,5,7-8H2,(H,19,21)(H2,18,22,23)",369.8663,-6.307599054590001,-1.57281805589,4.734780998700001,3.20550988497306
000005587,CN(CCN(c1ccccn1)Cc1ccccc1)C,C16H21N3,"InChI=1S/C16H21N3/c1-18(2)12-13-19(16-10-6-7-11-17-16)14-15-8-4-3-5-9-15/h3-11H,12-14H2,1-2H3",255.35804,-5.26812414568,-0.2829984045199998,4.98512574116,1.2867863867651073
000005588,Cc1ccc(cc1)C(=CCN1CCCC1)c1ccccn1,C19H22N2,"InChI=1S/C19H22N2/c1-16-7-9-17(10-8-16)18(19-6-2-3-12-20-19)11-15-21-13-4-5-14-21/h2-3,6-12H,4-5,13-15H2,1H3",278.39138,-5.5021420571099995,-0.8027358589749998,4.699406198135,2.273663679165413
000005589,O=C1OCC2=C1CCC1(C2CC2C3(C41OC4C1OC1(C3O)C(C)C)O2)C,C20H24O6,"InChI=1S/C20H24O6/c1-8(2)18-13(25-18)14-20(26-14)17(3)5-4-9-10(7-23-15(9)21)11(17)6-12-19(20,24-12)16(18)22/h8,11-14,16,22H,4-7H2,1-3H3",360.40096,-6.914412941205,-1.17553183416,5.738881107045,3.08523953349509
000005590,OCCOc1ccc(cc1)C(CC(C)(C)C)(C)C,C16H26O2,"InChI=1S/C16H26O2/c1-15(2,3)12-16(4,5)13-6-8-14(9-7-13)18-11-10-17/h6-9,17H,10-12H2,1-5H3",250.37644,-5.7035063064800005,0.016326831029999767,5.71983313751,1.1727087080622365
000005591,O=C1NC(=O)C(S1)Cc1ccc(cc1)OCC1(C)CCc2c(O1)c(C)c(c(c2C)O)C,C24H27NO5S,"InChI=1S/C24H27NO5S/c1-13-14(2)21-18(15(3)20(13)26)9-10-24(4,30-21)12-29-17-7-5-16(6-8-17)11-19-22(27)25-23(28)31-19/h5-8,19,26H,9-12H2,1-4H3,(H,25,27,28)",441.53988,-5.025942818735,-0.9224659531950001,4.10347686554,2.3158267166431084
000005592,OC(=O)CC1(C)CCc2c(O1)c(C)c(c(c2C)O)C,C15H20O4,"InChI=1S/C15H20O4/c1-8-9(2)14-11(10(3)13(8)18)5-6-15(4,19-14)7-12(16)17/h18H,5-7H2,1-4H3,(H,16,17)",264.3169,-5.01233712621,-0.035374800565000086,4.976962325645,3.9592902564159145
000005593,CCN(C(=O)C(c1ccccc1)CO)Cc1ccncc1,C17H20N2O2,"InChI=1S/C17H20N2O2/c1-2-19(12-14-8-10-18-11-9-14)17(21)16(13-20)15-6-4-3-5-7-15/h3-11,16,20H,2,12-13H2,1H3",284.3529,-6.43277142582,-0.8571586290750002,5.575612796745,4.2822744867442815
000005594,CC1C2CCC1CC(C2)OC(=O)c1cc(Cl)cc(c1)Cl,C16H18Cl2O2,"InChI=1S/C16H18Cl2O2/c1-9-10-2-3-11(9)7-15(6-10)20-16(19)12-4-13(17)8-14(18)5-12/h4-5,8-11,15H,2-3,6-7H2,1H3",313.21892,-6.9661145728000005,-1.7143172581500004,5.25179731465,2.4128973281617268
000005595,CN1C2CCC1CC(C2)OC(=O)c1c[nH]c2c1cccc2,C17H20N2O2,"InChI=1S/C17H20N2O2/c1-19-11-6-7-12(19)9-13(8-11)21-17(20)15-10-18-16-5-3-2-4-14(15)16/h2-5,10-13,18H,6-9H2,1H3",284.3529,-5.53479571917,-0.829947244025,4.704848475145,3.4930111259592347
000005597,COc1cc(cc(c1OC)OC)C(=O)NC1CCCNC1,C15H22N2O4,"InChI=1S/C15H22N2O4/c1-19-12-7-10(8-13(20-2)14(12)21-3)15(18)17-11-5-4-6-16-9-11/h7-8,11,16H,4-6,9H2,1-3H3,(H,17,18)",294.34618,-5.70894858349,-0.22313335741000007,5.48581522608,2.710865470972324
000005598,CC(=CCc1[nH]c2c(c1CC1NC(=O)C3N(C1=O)CCC3)cccc2)C,C21H25N3O2,"InChI=1S/C21H25N3O2/c1-13(2)9-10-17-15(14-6-3-4-7-16(14)22-17)12-18-21(26)24-11-5-8-19(24)20(25)23-18/h3-4,6-7,9,18-19,22H,5,8,10-12H2,1-2H3,(H,23,25)",351.4421,-5.287172115215,-0.1523837562799999,5.134788358935,2.2820249614504657
000005599,OC(=O)C(=N)Cc1c[nH]c2c1cccc2,C11H10N2O2,"InChI=1S/C11H10N2O2/c12-9(11(14)15)5-7-6-13-10-4-2-1-3-8(7)10/h1-4,6,12-13H,5H2,(H,14,15)",202.2093,-5.755207938075,-1.6408465185150005,4.11436141956,5.521575228605783
000005601,O=C(C(F)(F)F)CC(=O)c1cccs1,C8H5F3O2S,"InChI=1S/C8H5F3O2S/c9-8(10,11)7(13)4-5(12)6-2-1-3-14-6/h1-3H,4H2",222.1843096,-6.813730816520001,-2.2177278815750006,4.596002934945,2.5146211128718776
000005602,CC(=Cc1ccc(cc1)C(=O)O)c1ccc2c(c1)C(C)(C)CCC2(C)C,C24H28O2,"InChI=1S/C24H28O2/c1-16(14-17-6-8-18(9-7-17)22(25)26)19-10-11-20-21(15-19)24(4,5)13-12-23(20,2)3/h6-11,14-15H,12-13H2,1-5H3,(H,25,26)",348.47792,-6.1878689603699994,-1.2353968812699998,4.9524720791,6.192996501749375
000005603,CCCCCC(N)C,C7H17N,"InChI=1S/C7H17N/c1-3-4-5-6-7(2)8/h7H,3-6,8H2,1-2H3",115.21658,-6.065417727644999,2.1524205574549997,8.2178382851,1.2609699151153448
000005604,OCC1OC(C(C1O)O)n1ccc2c1ncnc2N,C11H14N4O4,"InChI=1S/C11H14N4O4/c12-9-5-1-2-15(10(5)14-4-13-9)11-8(18)7(17)6(3-16)19-11/h1-2,4,6-8,11,16-18H,3H2,(H2,12,13,14)",266.25326,-5.586497350765001,-0.5306220084749995,5.055875342290001,4.34052909867046
000005606,OC(c1ccccc1Cl)CNC(C)(C)C,C12H18ClNO,"InChI=1S/C12H18ClNO/c1-12(2,3)14-8-11(15)9-6-4-5-7-10(9)13/h4-7,11,14-15H,8H2,1-3H3",227.73042,-5.885822586315,-0.5061317619299999,5.379690824385,3.5198101237579564
000005610,NCCc1ccc(cc1)O,C8H11NO,"InChI=1S/C8H11NO/c9-6-5-7-1-3-8(10)4-2-7/h1-4,10H,5-6,9H2",137.17904,-5.700785167975,0.01904796953500032,5.71983313751,2.5066319286456875
000005612,N#CC(=Cc1cc(O)c(c(c1)O)O)C(=C(C#N)C#N)N,C13H8N4O3,"InChI=1S/C13H8N4O3/c14-4-8(12(17)9(5-15)6-16)1-7-2-10(18)13(20)11(19)3-7/h1-3,18-20H,17H2",268.22762,-6.06813886615,-2.4571880700150004,3.6109507961349996,4.730465997011394
000005613,N#CC(Cc1ccc(cc1)O)C#N,C10H8N2O,"InChI=1S/C10H8N2O/c11-6-9(7-12)5-8-1-3-10(13)4-2-8/h1-4,9,13H,5H2",172.18332,-6.35657954768,-0.6449098256849997,5.711669721995,4.571414352481517
000005614,N#CC(=Cc1cc(c(c(c1)C(C)(C)C)O)C(C)(C)C)C#N,C18H22N2O,"InChI=1S/C18H22N2O/c1-17(2,3)14-8-12(7-13(10-19)11-20)9-15(16(14)21)18(4,5)6/h7-9,21H,1-6H3",282.38008,-6.3021567775800005,-2.4082075769249998,3.8939492006550007,6.9979945269469175
000005615,CC(Oc1cccnc1N(C1CCN(CC1)Cc1ccccc1)C)C,C21H29N3O,"InChI=1S/C21H29N3O/c1-17(2)25-20-10-7-13-22-21(20)23(3)19-11-14-24(15-12-19)16-18-8-5-4-6-9-18/h4-10,13,17,19H,11-12,14-16H2,1-3H3",339.47446,-5.336152608305,-0.5034106234250002,4.83274198488,2.259712602937595
000005617,C1CCC(CC1)NC(=NC1C2CC3CC1CC(C2)C3)N1CCOCC1,C21H35N3O,"InChI=1S/C21H35N3O/c1-2-4-19(5-3-1)22-21(24-6-8-25-9-7-24)23-20-17-11-15-10-16(13-17)14-18(20)12-15/h15-20H,1-14H2,(H,22,23)",345.5221,-5.55656482721,0.6258618561500002,6.18242668336,3.0380649131545887
000005618,CCCCCC(C=CC1C2OCC(C1CC=CCCCC(=O)O)C2)O,C21H34O4,"InChI=1S/C21H34O4/c1-2-3-6-9-17(22)12-13-19-18(16-14-20(19)25-15-16)10-7-4-5-8-11-21(23)24/h4,7,12-13,16-20,22H,2-3,5-6,8-11,14-15H2,1H3,(H,23,24)",350.49226,-6.37834865572,0.08435529365500027,6.462703949375,3.555860749105482
000005619,O=C(N(C1CCCCC1N1CCCC1)C)Cc1ccc(c(c1)Cl)Cl,C19H26Cl2N2O,"InChI=1S/C19H26Cl2N2O/c1-22(19(24)13-14-8-9-15(20)16(21)12-14)17-6-2-3-7-18(17)23-10-4-5-11-23/h8-9,12,17-18H,2-7,10-11,13H2,1H3",369.32854,-5.752486799570001,-0.4843626538899999,5.268124145680001,4.840339919355355
000005620,O=C(N(C1CCC2(CC1N1CCCC1)CCCO2)C)Cc1ccc(c(c1)Cl)Cl,C22H30Cl2N2O2,"InChI=1S/C22H30Cl2N2O2/c1-25(21(27)14-16-5-6-17(23)18(24)13-16)19-7-9-22(8-4-12-28-22)15-20(19)26-10-2-3-11-26/h5-6,13,19-20H,2-4,7-12,14-15H2,1H3",425.3918,-5.52935344216,-0.5224585929599996,5.0068948492,7.610888426160247
000005621,COc1ccc2c(c1)CCC1C2CCC2(C1CCC2NCCCCCCN1C(=O)CCC1=O)C,C29H42N2O3,"InChI=1S/C29H42N2O3/c1-29-16-15-23-22-10-8-21(34-2)19-20(22)7-9-24(23)25(29)11-12-26(29)30-17-5-3-4-6-18-31-27(32)13-14-28(31)33/h8,10,19,23-26,30H,3-7,9,11-18H2,1-2H3",466.65538,-5.45860384103,-0.41905532976999993,5.0395485112600005,1.523302133551647
000005623,CCCCCC=CCC(C=Cc1cccc(n1)CC(CCCCC)O)O,C23H37NO2,"InChI=1S/C23H37NO2/c1-3-5-7-8-9-11-15-22(25)18-17-20-13-12-14-21(24-20)19-23(26)16-10-6-4-2/h9,11-14,17-18,22-23,25-26H,3-8,10,15-16,19H2,1-2H3",359.54538,-6.070860004655,-1.1564838646250006,4.914376140029999,2.042981502050863
000005625,CC(Nc1cccnc1N1CCN(CC1)C(=O)c1cc2c([nH]1)ccc(c2)NS(=O)(=O)C)C,C22H28N6O3S,"InChI=1S/C22H28N6O3S/c1-15(2)24-19-5-4-8-23-21(19)27-9-11-28(12-10-27)22(29)20-14-16-13-17(26-32(3,30)31)6-7-18(16)25-20/h4-8,13-15,24-26H,9-12H2,1-3H3",456.56112,-5.483094087575,-1.0884554020000001,4.394638685575,5.8772523152695255
000005626,CCCN(C1Cc2c(C1)cc(c(c2)OC)OC)CCC,C17H27NO2,"InChI=1S/C17H27NO2/c1-5-7-18(8-6-2)15-9-13-11-16(19-3)17(20-4)12-14(13)10-15/h11-12,15H,5-10H2,1-4H3",277.40178,-5.0395485112600005,0.29932523554999957,5.33887374681,0.6178954427562967
000005627,CSC(=C(C(=C(SC)N)C#N)C#N)N,C8H10N4S2,"InChI=1S/C8H10N4S2/c1-13-7(11)5(3-9)6(4-10)8(12)14-2/h11-12H2,1-2H3",226.3218,-5.77969818462,-1.39322291456,4.38647527006,3.32606230523257
000005628,N#CC(=C(Sc1ccccc1)N)C(=C(Sc1ccccc1)N)C#N,C18H14N4S2,"InChI=1S/C18H14N4S2/c19-11-15(17(21)23-13-7-3-1-4-8-13)16(12-20)18(22)24-14-9-5-2-6-10-14/h1-10H,21-22H2",350.46056,-5.575612796745,-1.2081854962200005,4.367427300525,7.027743667692853
000005631,COc1ccc2c(c1)CCC1C2CCC2(C1CCC2NCCCCCCN1C(=O)C=CC1=O)C,C29H40N2O3,"InChI=1S/C29H40N2O3/c1-29-16-15-23-22-10-8-21(34-2)19-20(22)7-9-24(23)25(29)11-12-26(29)30-17-5-3-4-6-18-31-27(32)13-14-28(31)33/h8,10,13-14,19,23-26,30H,3-7,9,11-12,15-18H2,1-2H3",464.6395,-5.461324979535,-2.53610108666,2.925223892875,1.448398326247652
000005632,CCCCOC(=O)c1ccccc1Nc1cccc(c1)C(F)(F)F,C18H18F3NO2,"InChI=1S/C18H18F3NO2/c1-2-3-11-24-17(23)15-9-4-5-10-16(15)22-14-8-6-7-13(12-14)18(19,20)21/h4-10,12,22H,2-3,11H2,1H3",337.3362296,-5.575612796745,-1.319752174925,4.25586062182,3.5185590223195065
000005634,C=CCCCCCCCCC(=O)O,C11H20O2,"InChI=1S/C11H20O2/c1-2-3-4-5-6-7-8-9-10-11(12)13/h2H,1,3-10H2,(H,12,13)",184.2753,-6.767471461935,0.22313335741000007,6.990604819345,4.044123965081931
000005635,COC1C=C2CCN(C2C2C1OC(=O)c1c2cc2c(c1)OCO2)C,C18H19NO5,"InChI=1S/C18H19NO5/c1-19-4-3-9-5-14(21-2)17-15(16(9)19)10-6-12-13(23-8-22-12)7-11(10)18(20)24-17/h5-7,14-17H,3-4,8H2,1-2H3",329.34716,-5.85044778575,-1.0911765405049998,4.759271245245,5.381836461783376
000005636,CCCCCCCC(=O)CCC1C(O)CC(C1CC=CCCCC(=O)O)O,C22H38O5,"InChI=1S/C22H38O5/c1-2-3-4-5-8-11-17(23)14-15-19-18(20(24)16-21(19)25)12-9-6-7-10-13-22(26)27/h6,9,18-21,24-25H,2-5,7-8,10-16H2,1H3,(H,26,27)",382.53412,-6.598760874625,-0.27211385050000025,6.326647024125,5.992937957782143
000005637,N#CC(=C(Sc1ccccc1N)N)C(=C(Sc1ccccc1N)N)C#N,C18H16N6S2,"InChI=1S/C18H16N6S2/c19-9-11(17(23)25-15-7-3-1-5-13(15)21)12(10-20)18(24)26-16-8-4-2-6-14(16)22/h1-8H,21-24H2",380.48984,-5.32254691578,-0.9687253077799998,4.3538216080000005,3.7803359670111334
000005638,O=C1NCC(C(=O)N1)C(F)(F)F,C5H5F3N2O2,"InChI=1S/C5H5F3N2O2/c6-5(7,8)2-1-9-4(12)10-3(2)11/h2H,1H2,(H2,9,10,11,12)",182.1006096,-7.491294304265,-0.8653220445900001,6.625972259675,3.2101627017000243
000005639,COc1ccccc1N1CCN(CC1)CCCNc1cc(=O)n(c(=O)n1C)C,C20H29N5O3,"InChI=1S/C20H29N5O3/c1-22-18(15-19(26)23(2)20(22)27)21-9-6-10-24-11-13-25(14-12-24)16-7-4-5-8-17(16)28-3/h4-5,7-8,15,21H,6,9-14H2,1-3H3",387.47596,-5.67629492143,-0.08707643215999994,5.58921848927,8.401223241577206
000005640,COc1ccccc1N1CCN(CC1)CCCNc1c(C)c(=O)n(c(=O)n1C)C,C21H31N5O3,"InChI=1S/C21H31N5O3/c1-16-19(23(2)21(28)24(3)20(16)27)22-10-7-11-25-12-14-26(15-13-25)17-8-5-6-9-18(17)29-4/h5-6,8-9,22H,7,10-15H2,1-4H3",401.50254,-5.6164298743200005,-0.6149773021299998,5.001452572190001,4.190440378818197
000005641,CCOC(=O)N,C3H7NO2,"InChI=1S/C3H7NO2/c1-2-6-3(4)5/h2H2,1H3,(H2,4,5)",89.09318,-7.2926511934,1.4775782082149993,8.770229401615,2.208949119711905
000005642,OCC1OC(C(C1O)OP(=O)(O)O)n1ccc(=O)[nH]c1=O,C9H13N2O9P,"InChI=1S/C9H13N2O9P/c12-3-4-6(14)7(20-21(16,17)18)8(19-4)11-2-1-5(13)10-9(11)15/h1-2,4,6-8,12,14H,3H2,(H,10,13,15)(H2,16,17,18)",324.181281,-6.7130486918350005,-1.2081854962200005,5.504863195615,6.716963256321862
000005643,OCC1OC(C(C1OP(=O)(O)O)O)n1ccc(=O)[nH]c1=O,C9H13N2O9P,"InChI=1S/C9H13N2O9P/c12-3-4-7(20-21(16,17)18)6(14)8(19-4)11-2-1-5(13)10-9(11)15/h1-2,4,6-8,12,14H,3H2,(H,10,13,15)(H2,16,17,18)",324.181281,-6.98788368084,-1.5619335018699996,5.42595017897,2.86806890603242
000005645,OC1CCC2(C(C1)CC(C1C2CCC2(C1CCC2C(CCC(=O)O)C)C)O)C,C24H40O4,"InChI=1S/C24H40O4/c1-14(4-7-21(27)28)17-5-6-18-22-19(9-11-24(17,18)3)23(2)10-8-16(25)12-15(23)13-20(22)26/h14-20,22,25-26H,4-13H2,1-3H3,(H,27,28)",392.572,-6.908970664195,0.12245123272500003,7.03142189692,3.061094783992322
000005646,CC(=O)C1C(=O)C=C2C(C1=O)(C)c1c(O)c(C)c(c(c1O2)C(=O)C)O,C18H16O7,"InChI=1S/C18H16O7/c1-6-14(22)12(8(3)20)16-13(15(6)23)18(4)10(25-16)5-9(21)11(7(2)19)17(18)24/h5,11,22-23H,1-4H3",344.31544,-6.22052262243,-1.9891522471550003,4.231370375275,3.922974839277713
000005647,CC(C(C(=O)OCCOCn1cnc2c1[nH]c(N)nc2=O)N)C,C13H20N6O4,"InChI=1S/C13H20N6O4/c1-7(2)8(14)12(21)23-4-3-22-6-19-5-16-9-10(19)17-13(15)18-11(9)20/h5,7-8H,3-4,6,14H2,1-2H3,(H3,15,17,18,20)",324.3357,-5.798746154155,-0.3673536981750001,5.43139245598,10.482968867345214
000005650,CCCCC(=O)N(C(C(=O)O)C(C)C)Cc1ccc(cc1)c1ccccc1c1n[nH]nn1,C24H29N5O3,"InChI=1S/C24H29N5O3/c1-4-5-10-21(30)29(22(16(2)3)24(31)32)15-17-11-13-18(14-12-17)19-8-6-7-9-20(19)23-25-27-28-26-23/h6-9,11-14,16,22H,4-5,10,15H2,1-3H3,(H,31,32)(H,25,26,27,28)",435.51876,-6.462703949375,-1.0938976790099995,5.368806270365001,6.145972520501047
000005652,CCCCC(C=C(C=CC=CC(=O)N1CCCC1=O)C)O,C17H25NO3,"InChI=1S/C17H25NO3/c1-3-4-9-15(19)13-14(2)8-5-6-10-16(20)18-12-7-11-17(18)21/h5-6,8,10,13,15,19H,3-4,7,9,11-12H2,1-2H3",291.3853,-6.016437234555,-1.7850668592799996,4.2313703752750005,2.6041102825686933
000005654,CCOC(=O)c1c(C)[nH]c(c1C)C=C1C(=O)Nc2c1cccc2,C18H18N2O3,"InChI=1S/C18H18N2O3/c1-4-23-18(22)16-10(2)15(19-11(16)3)9-13-12-7-5-6-8-14(12)20-17(13)21/h5-9,19H,4H2,1-3H3,(H,20,21)",310.34712,-5.401459932425,-1.940171754065,3.4612881783600002,2.5877414522030597
000005656,COc1ccc(cc1)C(C1(O)CCCCC1)CN(C)C,C17H27NO2,"InChI=1S/C17H27NO2/c1-18(2)13-16(17(19)11-5-4-6-12-17)14-7-9-15(20-3)10-8-14/h7-10,16,19H,4-6,11-13H2,1-3H3",277.40178,-5.54568027319,0.12789350973500024,5.673573782925001,2.652117204759435
000005659,CCCCCC1OC1CC=CCCCCCCCC(=O)OC,C19H34O3,"InChI=1S/C19H34O3/c1-3-4-11-14-17-18(22-17)15-12-9-7-5-6-8-10-13-16-19(20)21-2/h9,12,17-18H,3-8,10-11,13-16H2,1-2H3",310.47146,-6.435492564325,0.37007483667999974,6.805567401005,3.1277641504968052
000005660,CC12C(O)CC(C32CO3)OC2C1(CO)CCC(=C2)C,C15H22O4,"InChI=1S/C15H22O4/c1-9-3-4-14(7-16)11(5-9)19-12-6-10(17)13(14,2)15(12)8-18-15/h5,10-12,16-17H,3-4,6-8H2,1-2H3",266.33278,-6.549780381535,0.04898049309000019,6.598760874625,3.2540626233686716
000005662,OC1CCCCC1N1CCC(CC1)c1ccccc1,C17H25NO,"InChI=1S/C17H25NO/c19-17-9-5-4-8-16(17)18-12-10-15(11-13-18)14-6-2-1-3-7-14/h1-3,6-7,15-17,19H,4-5,8-13H2",259.3865,-5.221864791094999,0.1932008338550002,5.4150656249499995,1.9039063084884191
000005663,COc1ccc(cc1OC)C(=O)N1CCN(CC1)c1ccc2c(c1)CCC(=O)N2,C22H25N3O4,"InChI=1S/C22H25N3O4/c1-28-19-7-3-16(14-20(19)29-2)22(27)25-11-9-24(10-12-25)17-5-6-18-15(13-17)4-8-21(26)23-18/h3,5-7,13-14H,4,8-12H2,1-2H3,(H,23,26)",395.4516,-5.308941223255,-0.3673536981750001,4.94158752508,3.860013721714212
000005665,NC(C=C)CCC(=O)O,C6H11NO2,"InChI=1S/C6H11NO2/c1-2-5(7)3-4-6(8)9/h2,5H,1,3-4,7H2,(H,8,9)",129.15704,-6.47086736489,0.04898049309000019,6.51984785798,3.085169590508275
000005666,CCOc1ccccc1OCC1CNCCO1,C13H19NO3,"InChI=1S/C13H19NO3/c1-2-15-12-5-3-4-6-13(12)17-10-11-9-14-7-8-16-11/h3-6,11,14H,2,7-10H2,1H3",237.29486,-5.444998148505,0.06530732411999995,5.510305472625,1.3500077854753283
000005668,COC(=O)C1(O)CC2(CC)CCCN3C2c2n1c1ccccc1c2CC3,C21H26N2O3,"InChI=1S/C21H26N2O3/c1-3-20-10-6-11-22-12-9-15-14-7-4-5-8-16(14)23(17(15)18(20)22)21(25,13-20)19(24)26-2/h4-5,7-8,18,25H,3,6,9-13H2,1-2H3",354.44274,-5.194653406045,-0.23401791142999961,4.960635494615,3.4575723181781752
000005673,CCOC(=O)C1=CC2(CC)CCCN3C2c2n1c1ccccc1c2CC3,C22H26N2O2,"InChI=1S/C22H26N2O2/c1-3-22-11-7-12-23-13-10-16-15-8-5-6-9-17(15)24(19(16)20(22)23)18(14-22)21(25)26-4-2/h5-6,8-9,14,20H,3-4,7,10-13H2,1-2H3",350.45404,-5.20281682156,-0.8979757066500005,4.304841114909999,2.926887500428741
000005675,COc1c(CC=C(C)C)c(O)c(c(c1CC=C(C)C)O)C(=O)c1ccc(cc1)O,C24H28O5,"InChI=1S/C24H28O5/c1-14(2)6-12-18-22(27)20(21(26)16-8-10-17(25)11-9-16)23(28)19(24(18)29-5)13-7-15(3)4/h6-11,25,27-28H,12-13H2,1-5H3",396.47612,-5.352479439335,-1.428597715125,3.92388172421,7.017413373635118