mol_id,SMILES,formula,inchi,mass,HOMO(eV),LUMO(eV),GAP(eV),dipole_moment
000002313,OC(=O)COc1nn(c2c1cccc2)Cc1ccccc1,C16H14N2O3,"InChI=1S/C16H14N2O3/c19-15(20)11-21-16-13-8-4-5-9-14(13)18(17-16)10-12-6-2-1-3-7-12/h1-9H,10-11H2,(H,19,20)",282.29396,-5.73615996854,-0.9714464462850003,4.764713522255,5.669674442407871
000002314,CNC(=O)Oc1cccc2c1OC(O2)(C)C,C11H13NO4,"InChI=1S/C11H13NO4/c1-11(2)15-8-6-4-5-7(9(8)16-11)14-10(13)12-3/h4-6H,1-3H3,(H,12,13)",223.22522,-5.341594885315001,0.3020463740550001,5.643641259370001,3.400275275248461
000002315,O=S1(=O)NC(Cc2ccccc2)Nc2c1cc(c(c2)C(F)(F)F)S(=O)(=O)N,C15H14F3N3O4S2,"InChI=1S/C15H14F3N3O4S2/c16-15(17,18)10-7-11-13(8-12(10)26(19,22)23)27(24,25)21-14(20-11)6-9-4-2-1-3-5-9/h1-5,7-8,14,20-21H,6H2,(H2,19,22,23)",421.4145696,-6.4763096418999995,-1.782345720775,4.6939639211249995,8.17546766592346
000002316,O=C(C1CCC(CC1)CN=C(N)N)Oc1ccccc1C(=O)OCc1ccccc1,C23H27N3O4,"InChI=1S/C23H27N3O4/c24-23(25)26-14-16-10-12-18(13-11-16)21(27)30-20-9-5-4-8-19(20)22(28)29-15-17-6-2-1-3-7-17/h1-9,16,18H,10-15H2,(H4,24,25,26)",409.47818,-5.866774616780001,-1.4122708840950002,4.4545037326850005,1.9339766434745278
000002318,CC(Cc1cccc(c1)C(F)(F)F)NCCOC(=O)c1ccccc1,C19H20F3NO2,"InChI=1S/C19H20F3NO2/c1-14(12-15-6-5-9-17(13-15)19(20,21)22)23-10-11-25-18(24)16-7-3-2-4-8-16/h2-9,13-14,23H,10-12H2,1H3",351.3628096,-6.12256163625,-1.3170310364200004,4.80553059983,4.1258239035088495
000002319,CCCCN(c1c(cc(cc1[N+](=O)[O-])C(F)(F)F)[N+](=O)[O-])CC,C13H16F3N3O4,"InChI=1S/C13H16F3N3O4/c1-3-5-6-17(4-2)12-10(18(20)21)7-9(13(14,15)16)8-11(12)19(22)23/h7-8H,3-6H2,1-2H3",335.2790496,-6.576991766585,-2.870801122775,3.7061906438100003,2.160151245978161
000002320,O=CN(C(=C(SC(=O)c1ccccc1)CCOP(=O)(O)O)C)Cc1cnc(nc1N)C,C19H23N4O6PS,"InChI=1S/C19H23N4O6PS/c1-13(23(12-24)11-16-10-21-14(2)22-18(16)20)17(8-9-29-30(26,27)28)31-19(25)15-6-4-3-5-7-15/h3-7,10,12H,8-9,11H2,1-2H3,(H2,20,21,22)(H2,26,27,28)",466.447881,-5.8776591708,-1.3061464824,4.5715126884,3.2753872691715404
000002322,COC(C(C(C(C=CC(C)C)O)O)O)C(=O)NC1CCC(CNC1=O)O,C17H30N2O7,"InChI=1S/C17H30N2O7/c1-9(2)4-7-12(21)13(22)14(23)15(26-3)17(25)19-11-6-5-10(20)8-18-16(11)24/h4,7,9-15,20-23H,5-6,8H2,1-3H3,(H,18,24)(H,19,25)",374.4293,-6.438213702830001,-0.5061317619299999,5.932081940900001,2.357739012166105
000002323,COC(C(C(C(C=CC(C)C)O)O)O)C(=O)NC1CCC(CN(C1=O)C)O,C18H32N2O7,"InChI=1S/C18H32N2O7/c1-10(2)5-8-13(22)14(23)15(24)16(27-4)17(25)19-12-7-6-11(21)9-20(3)18(12)26/h5,8,10-16,21-24H,6-7,9H2,1-4H3,(H,19,25)",388.45588,-6.304877916085,0.24762360395499972,6.55250152004,2.9042626874325608
000002325,COc1cccc(c1OCCNCC1CSc2c(O1)cccc2)OC,C19H23NO4S,"InChI=1S/C19H23NO4S/c1-21-16-7-5-8-17(22-2)19(16)23-11-10-20-12-14-13-25-18-9-4-3-6-15(18)24-14/h3-9,14,20H,10-13H2,1-2H3",361.45522,-5.52391116515,-0.15510489478499956,5.368806270365001,1.7503583080598097
000002326,CC(N1CCCCC1)COc1ccccc1Cc1ccccc1,C21H27NO,"InChI=1S/C21H27NO/c1-18(22-14-8-3-9-15-22)17-23-21-13-7-6-12-20(21)16-19-10-4-2-5-11-19/h2,4-7,10-13,18H,3,8-9,14-17H2,1H3",309.44518,-5.70894858349,-0.07074960113000017,5.63819898236,1.8433446262131779
000002327,OCC(C(=O)NNCc1ccc(c(c1O)O)O)N,C10H15N3O5,"InChI=1S/C10H15N3O5/c11-6(4-14)10(18)13-12-3-5-1-2-7(15)9(17)8(5)16/h1-2,6,12,14-17H,3-4,11H2,(H,13,18)",257.2432,-5.570170519735,0.22313335741000007,5.793303877145,3.653426103826106
000002328,CC(N1C(=O)c2ccccc2NS1(=O)=O)C,C10H12N2O3S,"InChI=1S/C10H12N2O3S/c1-7(2)12-10(13)8-5-3-4-6-9(8)11-16(12,14)15/h3-7,11H,1-2H3",240.27888,-6.40011776376,-1.5320009783149997,4.868116785445,2.9439604107851043
000002329,O=C(C(NC(=O)c1ccccc1)Cc1ccc(cc1)O)Nc1ccc(cc1)C(=O)O,C23H20N2O5,"InChI=1S/C23H20N2O5/c26-19-12-6-15(7-13-19)14-20(25-21(27)16-4-2-1-3-5-16)22(28)24-18-10-8-17(9-11-18)23(29)30/h1-13,20,26H,14H2,(H,24,28)(H,25,27)(H,29,30)",404.4153,-6.06813886615,-1.2217911887450006,4.846347677404999,7.024090656951261
000002331,NC(=O)c1ccccc1,C7H7NO,"InChI=1S/C7H7NO/c8-7(9)6-4-2-1-3-5-6/h1-5H,(H2,8,9)",121.13658,-6.606924290139999,-0.6476309641900002,5.959293325949999,3.657138607824702
000002332,NC(=N)c1ccccc1,C7H8N2,"InChI=1S/C7H8N2/c8-7(9)6-4-2-1-3-5-6/h1-5H,(H3,8,9)",120.15182,-6.27494539253,-0.4625935458499999,5.81235184668,2.502404597186274
000002334,OC(=O)c1c(C(=O)O)c(C(=O)O)c(c(c1C(=O)O)C(=O)O)C(=O)O,C12H6O12,"InChI=1S/C12H6O12/c13-7(14)1-2(8(15)16)4(10(19)20)6(12(23)24)5(11(21)22)3(1)9(17)18/h(H,13,14)(H,15,16)(H,17,18)(H,19,20)(H,21,22)(H,23,24)",342.16884,-7.95660898862,-2.85175315324,5.10485583538,5.991945935738239
000002336,c1ccc2c(c1)c1ccc3c4c1c(c2)ccc4ccc3,C20H12,InChI=1S/C20H12/c1-2-7-17-15(4-1)12-16-9-8-13-5-3-6-14-10-11-18(17)20(16)19(13)14/h1-12H,252.30928,-5.175605436510001,-1.6680579035649998,3.5075475329450008,0.0469105582145427
000002337,CCOC(=O)c1ccc(cc1)N,C9H11NO2,"InChI=1S/C9H11NO2/c1-2-12-9(11)7-3-5-8(10)6-4-7/h3-6H,2,10H2,1H3",165.18914,-5.651804674885,-0.7020537342899997,4.949750940595,3.892198720711598
000002338,NC(NCCCC(C(=O)NC(C(=O)C)C)NC(=O)OCc1ccccc1)N,C18H29N5O4,"InChI=1S/C18H29N5O4/c1-12(13(2)24)22-16(25)15(9-6-10-21-17(19)20)23-18(26)27-11-14-7-4-3-5-8-14/h3-5,7-8,12,15,17,21H,6,9-11,19-20H2,1-2H3,(H,22,25)(H,23,26)",379.45396,-6.00827381904,-1.0340326318999997,4.9742411871400005,3.4321867016735847
000002339,O=C(NC(C(=O)NC(C(=O)C)C)Cc1ccc(cc1)O)OCc1ccccc1,C21H24N2O5,"InChI=1S/C21H24N2O5/c1-14(15(2)24)22-20(26)19(12-16-8-10-18(25)11-9-16)23-21(27)28-13-17-6-4-3-5-7-17/h3-11,14,19,25H,12-13H2,1-2H3,(H,22,26)(H,23,27)",384.42566,-5.700785167975,-0.8190626900050004,4.8817224779699995,2.0037756826246795
000002340,CN1C2CCC1C(C(C2)OC(=O)c1ccccc1)C(=O)O,C16H19NO4,"InChI=1S/C16H19NO4/c1-17-11-7-8-12(17)14(15(18)19)13(9-11)21-16(20)10-5-3-2-4-6-10/h2-6,11-14H,7-9H2,1H3,(H,18,19)",289.32636,-5.787861600135,-1.70343270413,4.084428896005,4.771594876204077
000002341,CN(C(Cc1ccccc1)C)Cc1ccccc1,C17H21N,"InChI=1S/C17H21N/c1-15(13-16-9-5-3-6-10-16)18(2)14-17-11-7-4-8-12-17/h3-12,15H,13-14H2,1-2H3",239.35534,-5.7035063064800005,0.016326831029999767,5.71983313751,0.7500161893326037
000002342,CCN(C(=O)C1CN2CCc3c(C2CC1OC(=O)C)cc(c(c3)OC)OC)CC,C22H32N2O5,"InChI=1S/C22H32N2O5/c1-6-23(7-2)22(26)17-13-24-9-8-15-10-20(27-4)21(28-5)11-16(15)18(24)12-19(17)29-14(3)25/h10-11,17-19H,6-9,12-13H2,1-5H3",404.49988,-5.2055379600650005,0.13605692525000013,5.341594885315001,4.063971941441649
000002343,Clc1cc2NC(=NS(=O)(=O)c2cc1S(=O)(=O)N)CSCc1ccccc1,C15H14ClN3O4S3,"InChI=1S/C15H14ClN3O4S3/c16-11-6-12-14(7-13(11)25(17,20)21)26(22,23)19-15(18-12)9-24-8-10-4-2-1-3-5-10/h1-7H,8-9H2,(H,18,19)(H2,17,20,21)",431.93736,-6.61780884416,-1.9102392305100002,4.70756961365,7.170742850347794
000002344,CN1C2CCC1CC(C2)OC(c1ccccc1)c1ccccc1,C21H25NO,"InChI=1S/C21H25NO/c1-22-18-12-13-19(22)15-20(14-18)23-21(16-8-4-2-5-9-16)17-10-6-3-7-11-17/h2-11,18-21H,12-15H2,1H3",307.4293,-5.662689228905,-0.165989448805,5.4966997801,0.5839224374298353
000002345,O=C(c1ccccc1)OCc1ccccc1,C14H12O2,"InChI=1S/C14H12O2/c15-14(13-9-5-2-6-10-13)16-11-12-7-3-1-4-8-12/h1-10H,11H2",212.24388,-6.636856813695,-1.2707716818349999,5.36608513186,1.8567043914183
000002347,CCCCOC(=O)c1ccccc1C(=O)OCc1ccccc1,C19H20O4,"InChI=1S/C19H20O4/c1-2-3-13-22-18(20)16-11-7-8-12-17(16)19(21)23-14-15-9-5-4-6-10-15/h4-12H,2-3,13-14H2,1H3",312.3597,-6.813730816520001,-1.183695249675,5.630035566845001,3.322842025467506
000002348,Clc1cc2NC(Cc3ccccc3)NS(=O)(=O)c2cc1S(=O)(=O)N,C14H14ClN3O4S2,"InChI=1S/C14H14ClN3O4S2/c15-10-7-11-13(8-12(10)23(16,19)20)24(21,22)18-14(17-11)6-9-4-2-1-3-5-9/h1-5,7-8,14,17-18H,6H2,(H2,16,19,20)",387.86166,-6.364742963195,-1.4013863300749998,4.96335663312,9.118172288463626
000002349,O=C(Cc1ccccc1)NC1C(=O)N2C1SC(C2C(=O)O)(C)C,C16H18N2O4S,"InChI=1S/C16H18N2O4S/c1-16(2)12(15(21)22)18-13(20)11(14(18)23-16)17-10(19)8-9-6-4-3-5-7-9/h3-7,11-12,14H,8H2,1-2H3,(H,17,19)(H,21,22)",334.39012,-6.47086736489,-1.0340326318999997,5.43683473299,5.663511633845383
000002350,OC(=O)CCCN1CCC(CC1)OC(c1ccccn1)c1ccc(cc1)Cl,C21H25ClN2O3,"InChI=1S/C21H25ClN2O3/c22-17-8-6-16(7-9-17)21(19-4-1-2-12-23-19)27-18-10-14-24(15-11-18)13-3-5-20(25)26/h1-2,4,6-9,12,18,21H,3,5,10-11,13-15H2,(H,25,26)",388.8878,-6.147051882795,-0.9115813991749997,5.23547048362,3.930869281936631
000002351,CC(COCC(N1CCCC1)CN(c1ccccc1)Cc1ccccc1)C,C24H34N2O,"InChI=1S/C24H34N2O/c1-21(2)19-27-20-24(25-15-9-10-16-25)18-26(23-13-7-4-8-14-23)17-22-11-5-3-6-12-22/h3-8,11-14,21,24H,9-10,15-20H2,1-2H3",366.53956,-5.181047713520001,0.027211385050000203,5.208259098570001,1.7795175533537173
000002352,CC#CCC(C(C=CC1C(O)CC2C1c1cccc(c1O2)CCCC(=O)O)O)C,C24H30O5,"InChI=1S/C24H30O5/c1-3-4-7-15(2)19(25)13-12-17-20(26)14-21-23(17)18-10-5-8-16(24(18)29-21)9-6-11-22(27)28/h5,8,10,12-13,15,17,19-21,23,25-26H,6-7,9,11,14H2,1-2H3,(H,27,28)",398.492,-6.051812035119999,-0.5523911165150004,5.499420918604999,7.67460052585475
000002354,NC(=N)c1ccc(cc1)NN=Nc1ccc(cc1)C(=N)N,C14H15N7,"InChI=1S/C14H15N7/c15-13(16)9-1-5-11(6-2-9)19-21-20-12-7-3-10(4-8-12)14(17)18/h1-8H,(H3,15,16)(H3,17,18)(H,19,20)",281.3158,-5.730717691530001,-1.7769034437649998,3.953814247765001,1.8012666513575941
000002355,COc1c2ccc(=O)oc2cc2c1cco2,C12H8O4,"InChI=1S/C12H8O4/c1-14-12-7-2-3-11(13)16-10(7)6-9-8(12)4-5-15-9/h2-6H,1H3",216.18952,-5.798746154155,-1.6871058731000002,4.111640281055,7.532540731227546
000002356,OCC1OC2C(C(C1O)O)OC(=O)c1c2c(O)c(c(c1)O)OC,C14H16O9,"InChI=1S/C14H16O9/c1-21-11-5(16)2-4-7(9(11)18)12-13(23-14(4)20)10(19)8(17)6(3-15)22-12/h2,6,8,10,12-13,15-19H,3H2,1H3",328.27144,-6.11711935924,-1.3578481139949998,4.759271245245,4.7945453629046
000002358,COc1ccc2c(c1)OC(C(=O)N2O)O,C9H9NO5,"InChI=1S/C9H9NO5/c1-14-5-2-3-6-7(4-5)15-9(12)8(11)10(6)13/h2-4,9,12-13H,1H3",211.17146,-5.43139245598,-0.8489952135600003,4.58239724242,2.16039507306673
000002360,NC(C(=O)O)CNC(=O)C(=O)O,C5H8N2O5,"InChI=1S/C5H8N2O5/c6-2(4(9)10)1-7-3(8)5(11)12/h2H,1,6H2,(H,7,8)(H,9,10)(H,11,12)",176.12742,-6.889922694659999,-2.12793031091,4.761992383749999,3.3240992489757284
000002361,O=c1cc(oc2c1c1ccccc1cc2)c1ccccc1,C19H12O2,InChI=1S/C19H12O2/c20-16-12-18(14-7-2-1-3-8-14)21-17-11-10-13-6-4-5-9-15(13)19(16)17/h1-12H,272.29738,-6.051812035119999,-1.6626156265550005,4.389196408564999,3.6222034451842986
000002363,COc1cc(cc(c1OC)OC)C1C2C(=O)OCC2Cc2c1cc1OCOc1c2O,C22H22O8,"InChI=1S/C22H22O8/c1-25-14-5-10(6-15(26-2)20(14)27-3)17-12-7-16-21(30-9-29-16)19(23)13(12)4-11-8-28-22(24)18(11)17/h5-7,11,17-18,23H,4,8-9H2,1-3H3",414.40528,-5.483094087575,-0.06530732411999995,5.417786763455,5.482710133685894
000002365,C1COC1=O,C3H4O2,InChI=1S/C3H4O2/c4-3-1-2-5-3/h1-2H2,72.06266,-7.689937415130001,0.059865047109999736,7.749802462240001,4.119345520146981
000002366,CNCCc1ccccn1,C8H12N2,"InChI=1S/C8H12N2/c1-9-7-5-8-4-2-3-6-10-8/h2-4,6,9H,5,7H2,1H3",136.19428,-5.98106243399,-0.5632756705349999,5.417786763455,1.3372303430542547
000002367,O=C1C=CC2(C(=C1)CCC1C2(F)C(O)CC2(C1CC(C2(O)C(=O)COP(=O)(O)O)C)C)C,C22H30FO8P,"InChI=1S/C22H30FO8P/c1-12-8-16-15-5-4-13-9-14(24)6-7-19(13,2)21(15,23)17(25)10-20(16,3)22(12,27)18(26)11-31-32(28,29)30/h6-7,9,12,15-17,25,27H,4-5,8,10-11H2,1-3H3,(H2,28,29,30)",472.4409642,-6.190590098875,-1.7660188897450002,4.42457120913,7.304829675515577
000002368,CNC(=NC)NCc1ccccc1,C10H15N3,"InChI=1S/C10H15N3/c1-11-10(12-2)13-8-9-6-4-3-5-7-9/h3-7H,8H2,1-2H3,(H2,11,12,13)",177.2462,-5.945687633425,-0.07891301664500006,5.86677461678,2.141301747101281
000002369,OC(COc1ccc(cc1)CCOCC1CC1)CNC(C)C,C18H29NO3,"InChI=1S/C18H29NO3/c1-14(2)19-11-17(20)13-22-18-7-5-15(6-8-18)9-10-21-12-16-3-4-16/h5-8,14,16-17,19-20H,3-4,9-13H2,1-2H3",307.42776,-5.793303877145,-0.07347073963499984,5.71983313751,2.5442855150375716
000002371,CC(=C)C1CCC2(C1C1CCC3C(C1(C)CC2)(C)CCC1C3(C)CCC(C1(C)C)O)C(=O)O,C30H48O3,"InChI=1S/C30H48O3/c1-18(2)19-10-15-30(25(32)33)17-16-28(6)20(24(19)30)8-9-22-27(5)13-12-23(31)26(3,4)21(27)11-14-29(22,28)7/h19-24,31H,1,8-17H2,2-7H3,(H,32,33)",456.70032,-6.63413567519,0.0897975706649996,6.723933245854999,5.358734028870998
000002372,COc1cc(CCNCC(COc2cccc(c2)C)O)ccc1OC,C20H27NO4,"InChI=1S/C20H27NO4/c1-15-5-4-6-18(11-15)25-14-17(22)13-21-10-9-16-7-8-19(23-2)20(12-16)24-3/h4-8,11-12,17,21-22H,9-10,13-14H2,1-3H3",345.43268,-5.227307068105,0.08707643215999994,5.3143835002649995,1.7142134959700905
000002374,CC(c1cc(O)c(cc1O)C(C)(C)C)(C)C,C14H22O2,"InChI=1S/C14H22O2/c1-13(2,3)9-7-12(16)10(8-11(9)15)14(4,5)6/h7-8,15-16H,1-6H3",222.32328,-5.20825909857,0.1306146482399999,5.33887374681,4.12310562561766e-05
000002375,N#Cc1ccc(cc1C(F)(F)F)NC(=O)C(CS(=O)(=O)c1ccc(cc1)F)(O)C,C18H14F4N2O4S,"InChI=1S/C18H14F4N2O4S/c1-17(26,10-29(27,28)14-6-3-12(19)4-7-14)16(25)24-13-5-2-11(9-23)15(8-13)18(20,21)22/h2-8,26H,10H2,1H3,(H,24,25)",430.3733728,-6.86815358662,-1.94833516958,4.91981841704,7.124777689544426
000002376,CN1CCc2c(C1C1OC(=O)c3c1ccc1c3OCO1)cc1c(c2)OCO1,C20H17NO6,"InChI=1S/C20H17NO6/c1-21-5-4-10-6-14-15(25-8-24-14)7-12(10)17(21)18-11-2-3-13-19(26-9-23-13)16(11)20(22)27-18/h2-3,6-7,17-18H,4-5,8-9H2,1H3",367.35208,-5.319825777275001,-1.2925407898749999,4.027284987400001,4.210111836873339
000002377,CNCCCCOc1ccccc1Cc1ccccc1,C18H23NO,"InChI=1S/C18H23NO/c1-19-13-7-8-14-20-18-12-6-5-11-17(18)15-16-9-3-2-4-10-16/h2-6,9-12,19H,7-8,13-15H2,1H3",269.38132,-5.727996553025,-0.08163415514999972,5.646362397875,2.093500578918239
000002378,c1ccc(cc1)c1ccc(cc1)C(n1ccnc1)c1ccccc1,C22H18N2,"InChI=1S/C22H18N2/c1-3-7-18(8-4-1)19-11-13-21(14-12-19)22(24-16-15-23-17-24)20-9-5-2-6-10-20/h1-17,22H",310.39172,-5.885822586315,-0.7918513049550002,5.09397128136,4.086378916936241
000002380,CC(C(c1cnc2c(n1)c(=O)nc([nH]2)N)O)O,C9H11N5O3,"InChI=1S/C9H11N5O3/c1-3(15)6(16)4-2-11-7-5(12-4)8(17)14-9(10)13-7/h2-3,6,15-16H,1H3,(H3,10,11,13,14,17)",237.21534,-6.50352102695,-1.9755465546300002,4.5279744723199995,6.341496266260038
000002381,OC(C1CC2CC1C=C2)(c1ccccc1)CCN1CCCCC1,C21H29NO,"InChI=1S/C21H29NO/c23-21(19-7-3-1-4-8-19,11-14-22-12-5-2-6-13-22)20-16-17-9-10-18(20)15-17/h1,3-4,7-10,17-18,20,23H,2,5-6,11-16H2",311.46106,-5.54023799618,0.09523984767499982,5.635477843855,1.3922518875268226
000002382,OC(=O)CN(S(=O)(=O)c1ccc(cc1)C)c1ccccc1c1ccccc1,C21H19NO4S,"InChI=1S/C21H19NO4S/c1-16-11-13-18(14-12-16)27(25,26)22(15-21(23)24)20-10-6-5-9-19(20)17-7-3-2-4-8-17/h2-14H,15H2,1H3,(H,23,24)",381.44486,-6.438213702830001,-1.2381180197750004,5.200095683055,4.327846445775196
000002383,COCCNCCOC,C6H15NO2,"InChI=1S/C6H15NO2/c1-8-5-3-7-4-6-9-2/h7H,3-6H2,1-2H3",133.1888,-5.907591694355,2.3048043137349996,8.21239600809,1.5044844998596696
000002385,NC(=N)c1ccc2c(c1)[nH]c(n2)C(c1nc2c([nH]1)cc(cc2)C(=N)N)(O)O,C17H16N8O2,"InChI=1S/C17H16N8O2/c18-13(19)7-1-3-9-11(5-7)24-15(22-9)17(26,27)16-23-10-4-2-8(14(20)21)6-12(10)25-16/h1-6,26-27H,(H3,18,19)(H3,20,21)(H,22,24)(H,23,25)",364.36134,-6.03548520409,-1.3333578674500002,4.70212733664,4.815776446810421
000002387,NC(=N)c1ccc2c(c1)[nH]c(n2)Cc1nc2c([nH]1)cc(cc2)C(=N)N,C17H16N8,"InChI=1S/C17H16N8/c18-16(19)8-1-3-10-12(5-8)24-14(22-10)7-15-23-11-4-2-9(17(20)21)6-13(11)25-15/h1-6H,7H2,(H3,18,19)(H3,20,21)(H,22,24)(H,23,25)",332.36254,-5.967456741465,-1.1347147565849998,4.83274198488,2.4916951709799897
000002389,N#CC(=Cc1ccc(c(c1)O)O)C(=O)NCCCNC(=O)C(=Cc1ccc(c(c1)O)O)C#N,C23H20N4O6,"InChI=1S/C23H20N4O6/c24-12-16(8-14-2-4-18(28)20(30)10-14)22(32)26-6-1-7-27-23(33)17(13-25)9-15-3-5-19(29)21(31)11-15/h2-5,8-11,28-31H,1,6-7H2,(H,26,32)(H,27,33)",448.4281,-5.978341295485,-2.0354116017400004,3.942929693745,7.7061018867745315
000002390,N#CC(=Cc1ccc(c(c1)O)O)C(=O)NCc1ccccc1,C17H14N2O3,"InChI=1S/C17H14N2O3/c18-10-14(8-13-6-7-15(20)16(21)9-13)17(22)19-11-12-4-2-1-3-5-12/h1-9,20-21H,11H2,(H,19,22)",294.30466,-5.836842093225,-1.760576612735,4.07626548049,6.02616519459208
000002391,CC(=O)Oc1ccc(cc1)C(c1ccccn1)c1ccc(cc1)OC(=O)C,C22H19NO4,"InChI=1S/C22H19NO4/c1-15(24)26-19-10-6-17(7-11-19)22(21-5-3-4-14-23-21)18-8-12-20(13-9-18)27-16(2)25/h3-14,22H,1-2H3",361.39056,-5.8694957552850004,-0.8217838285100001,5.047711926775,2.7609449002924706
000002395,O=CN(C(=C(CCOC(=O)C(C)C)S)C)Cc1cnc(nc1N)C,C16H24N4O3S,"InChI=1S/C16H24N4O3S/c1-10(2)16(22)23-6-5-14(24)11(3)20(9-21)8-13-7-18-12(4)19-15(13)17/h7,9-10,24H,5-6,8H2,1-4H3,(H2,17,18,19)",352.45176,-5.853168924255001,-0.851716352065,5.001452572190001,4.137478696355185
000002396,CN(CCCn1cc(c2c1cccc2)C1=C(C(=O)NC1=O)c1c[nH]c2c1cccc2)C,C25H24N4O2,"InChI=1S/C25H24N4O2/c1-28(2)12-7-13-29-15-19(17-9-4-6-11-21(17)29)23-22(24(30)27-25(23)31)18-14-26-20-10-5-3-8-16(18)20/h3-6,8-11,14-15,26H,7,12-13H2,1-2H3,(H,27,30,31)",412.48366,-5.06675989631,-2.125209172405,2.941550723905,5.233635682843524
000002397,CN1CCCC1CCn1cc(c2c1cccc2)C1=C(C(=O)NC1=O)c1c[nH]c2c1cccc2,C27H26N4O2,"InChI=1S/C27H26N4O2/c1-30-13-6-7-17(30)12-14-31-16-21(19-9-3-5-11-23(19)31)25-24(26(32)29-27(25)33)20-15-28-22-10-4-2-8-18(20)22/h2-5,8-11,15-17,28H,6-7,12-14H2,1H3,(H,29,32,33)",438.52094,-5.080365588835,-2.08439209483,2.995973494005,6.369908603033956
000002398,NCCCn1cc(c2c1cccc2)C1=C(C(=O)NC1=O)c1c[nH]c2c1cccc2,C23H20N4O2,"InChI=1S/C23H20N4O2/c24-10-5-11-27-13-17(15-7-2-4-9-19(15)27)21-20(22(28)26-23(21)29)16-12-25-18-8-3-1-6-14(16)18/h1-4,6-9,12-13,25H,5,10-11,24H2,(H,26,28,29)",384.4305,-5.074923311825,-2.087113233335,2.9878100784899995,6.015010815996592
000002399,O=C1NC(=O)C(=C1c1c[nH]c2c1cccc2)c1c[nH]c2c1cccc2,C20H13N3O2,"InChI=1S/C20H13N3O2/c24-19-17(13-9-21-15-7-3-1-5-11(13)15)18(20(25)23-19)14-10-22-16-8-4-2-6-12(14)16/h1-10,21-22H,(H,23,24,25)",327.33612,-5.461324979535,-2.18779535802,3.2735296215150003,5.766300460196728
000002400,O=C1N(C)C(=O)C(=C1c1c[nH]c2c1cccc2)c1c[nH]c2c1cccc2,C21H15N3O2,"InChI=1S/C21H15N3O2/c1-24-20(25)18(14-10-22-16-8-4-2-6-12(14)16)19(21(24)26)15-11-23-17-9-5-3-7-13(15)17/h2-11,22-23H,1H3",341.3627,-5.113019250895,-2.08983437184,3.0231848790550004,5.179988167971621
000002401,O=C1NC(=O)C(=C1c1cn(c2c1cccc2)CCC1CCCCN1)c1c[nH]c2c1cccc2,C27H26N4O2,"InChI=1S/C27H26N4O2/c32-26-24(20-15-29-22-10-3-1-8-18(20)22)25(27(33)30-26)21-16-31(23-11-4-2-9-19(21)23)14-12-17-7-5-6-13-28-17/h1-4,8-11,15-17,28-29H,5-7,12-14H2,(H,30,32,33)",438.52094,-5.442277010000001,-2.185074219515,3.2572027904850005,5.193350345152924
000002402,O=C1NC(=O)C(=C1c1cn(c2c1cccc2)CCCN1CCNCC1)c1c[nH]c2c1cccc2,C27H27N5O2,"InChI=1S/C27H27N5O2/c33-26-24(20-16-29-22-8-3-1-6-18(20)22)25(27(34)30-26)21-17-32(23-9-4-2-7-19(21)23)13-5-12-31-14-10-28-11-15-31/h1-4,6-9,16-17,28-29H,5,10-15H2,(H,30,33,34)",453.53558,-4.8953281704950005,-2.20956446606,2.6857637044350007,7.4981814541958105
000002403,NCCCn1cc(c2c1cccc2)C1=C(C(=O)NC1=O)c1cn(c2c1cccc2)C,C24H22N4O2,"InChI=1S/C24H22N4O2/c1-27-13-17(15-7-2-4-9-19(15)27)21-22(24(30)26-23(21)29)18-14-28(12-6-11-25)20-10-5-3-8-16(18)20/h2-5,7-10,13-14H,6,11-12,25H2,1H3,(H,26,29,30)",398.45708,-5.3279891927900005,-2.09527664885,3.2327125439400004,6.56842673549618
000002404,NCC1CCn2c(C1)c(C1=C(C(=O)NC1=O)c1cn(c3c1cccc3)C)c1c2cccc1,C26H24N4O2,"InChI=1S/C26H24N4O2/c1-29-14-18(16-6-2-4-8-19(16)29)23-24(26(32)28-25(23)31)22-17-7-3-5-9-20(17)30-11-10-15(13-27)12-21(22)30/h2-9,14-15H,10-13,27H2,1H3,(H,28,31,32)",424.49436,-4.97968346415,-2.1007189258600003,2.8789645382899995,5.857197272913898
000002405,OC(COc1ccc(cc1)COCCOC(C)C)CNC(C)C,C18H31NO4,"InChI=1S/C18H31NO4/c1-14(2)19-11-17(20)13-23-18-7-5-16(6-8-18)12-21-9-10-22-15(3)4/h5-8,14-15,17,19-20H,9-13H2,1-4H3",325.44304,-5.733438830035,0.029932523554999868,5.76337135359,2.096962856541336
000002406,Clc1cc(Sc2cc(Cl)cc(c2O)Cl)c(c(c1)Cl)O,C12H6Cl4O2S,"InChI=1S/C12H6Cl4O2S/c13-5-1-7(15)11(17)9(3-5)19-10-4-6(14)2-8(16)12(10)18/h1-4,17-18H",356.05184,-6.141609605785001,-1.50751073177,4.634098874015001,3.176488180157137
000002408,Clc1ccc2c(c1)C(=O)C1(C(=N2)N(CC1)c1ccccc1)O,C17H13ClN2O2,"InChI=1S/C17H13ClN2O2/c18-11-6-7-14-13(10-11)15(21)17(22)8-9-20(16(17)19-14)12-4-2-1-3-5-12/h1-7,10,22H,8-9H2",312.75032,-5.640920120865,-2.212285604565,3.4286345163000003,3.940349396255743
000002409,CC=C(C=C1CN=C2C(C1=O)(O)CCN2c1ccccc1)C,C18H20N2O2,"InChI=1S/C18H20N2O2/c1-3-13(2)11-14-12-19-17-18(22,16(14)21)9-10-20(17)15-7-5-4-6-8-15/h3-8,11,22H,9-10,12H2,1-2H3",296.3636,-5.40418107093,-1.526558701305,3.877622369625,2.2689495773068646