mol_id,SMILES,formula,inchi,mass,HOMO(eV),LUMO(eV),GAP(eV),dipole_moment
000001960,NCCNS(=O)(=O)c1cccc2c1cccc2Cl,C12H13ClN2O2S,"InChI=1S/C12H13ClN2O2S/c13-11-5-1-4-10-9(11)3-2-6-12(10)18(16,17)15-8-7-14/h1-6,15H,7-8,14H2",284.76182,-6.35113727067,-1.9891522471550003,4.3619850235149995,3.4479518317676656
000001961,NCC1OC(Cc2c1ccc(c2O)O)C12CC3CC(C2)CC(C1)C3,C20H27NO3,"InChI=1S/C20H27NO3/c21-10-17-14-1-2-16(22)19(23)15(14)6-18(24-17)20-7-11-3-12(8-20)5-13(4-11)9-20/h1-2,11-13,17-18,22-23H,3-10,21H2",329.43328,-5.477651810565001,0.14966261777500023,5.627314428340001,3.0682065196151647
000001962,C1CC(N1)COc1cccnc1,C9H12N2O,"InChI=1S/C9H12N2O/c1-2-9(6-10-4-1)12-7-8-3-5-11-8/h1-2,4,6,8,11H,3,5,7H2",164.20438,-6.108955943725,-0.5333431469800001,5.575612796745,3.3973827048169007
000001963,OCc1nnc2n1c1ccc(cc1C(=NC2)c1ccccc1Cl)Cl,C17H12Cl2N4O,"InChI=1S/C17H12Cl2N4O/c18-10-5-6-14-12(7-10)17(11-3-1-2-4-13(11)19)20-8-15-21-22-16(9-24)23(14)15/h1-7,24H,8-9H2",359.20938,-6.4763096418999995,-1.8122782443299998,4.66403139757,4.620823615538793
000001964,O=C1CCC2C(C1)CC=Cc1c(C(=O)OC2C)c(O)cc(c1)O,C18H20O5,"InChI=1S/C18H20O5/c1-10-15-6-5-13(19)7-11(15)3-2-4-12-8-14(20)9-16(21)17(12)18(22)23-10/h2,4,8-11,15,20-21H,3,5-7H2,1H3",316.3484,-6.019158373060001,-0.8925334296400003,5.12662494342,4.857431609442792
000001967,OCC#CCCCC#CCCCCC1=C(C)C(=O)C(=C(C1=O)C)C,C21H26O3,"InChI=1S/C21H26O3/c1-16-17(2)21(24)19(18(3)20(16)23)14-12-10-8-6-4-5-7-9-11-13-15-22/h22H,5,7-10,12,14-15H2,1-3H3",326.42934,-6.560664935555001,-2.887127953805,3.6735369817500008,2.2772567377083335
000001970,CNC(=O)C1OC(C(C1O)O)n1cnc2c1ncnc2NCc1ccc(cc1)N,C18H21N7O4,"InChI=1S/C18H21N7O4/c1-20-17(28)14-12(26)13(27)18(29-14)25-8-24-11-15(22-7-23-16(11)25)21-6-9-2-4-10(19)5-3-9/h2-5,7-8,12-14,18,26-27H,6,19H2,1H3,(H,20,28)(H,21,22,23)",399.40384,-5.630035566845,-0.9143025376800002,4.7157330291649995,7.4717528170534395
000001971,OCC1C=CC(C1)n1cnc2c1nc(N)nc2NC1CC1,C14H18N6O,"InChI=1S/C14H18N6O/c15-14-18-12(17-9-2-3-9)11-13(19-14)20(7-16-11)10-4-1-8(5-10)6-21/h1,4,7-10,21H,2-3,5-6H2,(H3,15,17,18,19)",286.33232,-4.97968346415,-0.1714317258150002,4.808251738335,1.834817974052467
000001974,CCCCCc1ccc(cc1)C=CC(=O)Nc1ccccc1C(=O)O,C21H23NO3,"InChI=1S/C21H23NO3/c1-2-3-4-7-16-10-12-17(13-11-16)14-15-20(23)22-19-9-6-5-8-18(19)21(24)25/h5-6,8-15H,2-4,7H2,1H3,(H,22,23)(H,24,25)",337.41222,-6.005552680535001,-1.8231627983500003,4.182389882185,0.44936795320872625
000001977,CCCCCC=CCC=CCC=CCC=CCCCC(=O)NCCCl,C22H36ClNO,"InChI=1S/C22H36ClNO/c1-2-3-4-5-6-7-8-9-10-11-12-13-14-15-16-17-18-19-22(25)24-21-20-23/h6-7,9-10,12-13,15-16H,2-5,8,11,14,17-21H2,1H3,(H,24,25)",365.98034,-6.19331123738,0.22857563442000028,6.4218868718,1.4640734765226096
000001978,CCCC(=O)Nc1ccc(c(c1)C(=O)C)OCC(CNC(C)C)O,C18H28N2O4,"InChI=1S/C18H28N2O4/c1-5-6-18(23)20-14-7-8-17(16(9-14)13(4)21)24-11-15(22)10-19-12(2)3/h7-9,12,15,19,22H,5-6,10-11H2,1-4H3,(H,20,23)",336.42592,-5.559285965715,-0.64218868718,4.9170972785350004,3.824658655565618
000001979,CC(=O)OC1CN2CCC1CC2,C9H15NO2,"InChI=1S/C9H15NO2/c1-7(11)12-9-6-10-4-2-8(9)3-5-10/h8-9H,2-6H2,1H3",169.2209,-5.711669721995,0.25034474246000027,5.962014464455001,1.045244257389152
000001980,CC(=O)OC1C(=O)OC2C1OC(=O)C2OC(=O)C,C10H10O8,"InChI=1S/C10H10O8/c1-3(11)15-7-5-6(18-9(7)13)8(10(14)17-5)16-4(2)12/h5-8H,1-2H3",258.1816,-7.5647650439000005,-0.9197448146899996,6.645020229210001,4.938028635136597
000001981,COc1ccc2c(c1)c(CC(=O)OCC(=O)O)c(n2C(=O)c1ccc(cc1)Cl)C,C21H18ClNO6,"InChI=1S/C21H18ClNO6/c1-12-16(10-20(26)29-11-19(24)25)17-9-15(28-2)7-8-18(17)23(12)21(27)13-3-5-14(22)6-4-13/h3-9H,10-11H2,1-2H3,(H,24,25)",415.82372,-5.77425590761,-1.55104894785,4.22320695976,6.532610205962468
000001982,COP(=O)(NC(=O)C)SC,C4H10NO3PS,"InChI=1S/C4H10NO3PS/c1-4(6)5-9(7,8-2)10-3/h1-3H3,(H,5,6,7)",183.165861,-6.680395029775,-0.5687179475450002,6.11167708223,3.9959492867920634
000001983,CC(=O)Nc1ccc(cc1)O,C8H9NO2,"InChI=1S/C8H9NO2/c1-6(10)9-7-2-4-8(11)5-3-7/h2-5,11H,1H3,(H,9,10)",151.16256,-5.32254691578,-0.013605692525000102,5.308941223255,2.0404257486088535
000001984,CC(=O)Nc1ccc(cc1)OC(=O)c1ccccc1O,C15H13NO4,"InChI=1S/C15H13NO4/c1-10(17)16-11-6-8-12(9-7-11)20-15(19)13-4-2-3-5-14(13)18/h2-9,18H,1H3,(H,16,17)",271.26802,-5.48581522608,-1.3115887594100002,4.1742264666699995,0.9674041509043674
000001986,CC(=O)Nc1nnc(s1)S(=O)(=O)N,C4H6N4O3S2,"InChI=1S/C4H6N4O3S2/c1-2(9)6-3-7-8-4(12-3)13(5,10)11/h1H3,(H2,5,10,11)(H,6,7,9)",222.24544,-6.889922694659999,-2.01908477071,4.870837923949999,6.045689342675904
000001987,CCc1nc(N)nc(c1c1ccc(c(c1)N=NN(Cc1ccccc1)CCOC(=O)C)Cl)N,C23H26ClN7O2,"InChI=1S/C23H26ClN7O2/c1-3-19-21(22(25)28-23(26)27-19)17-9-10-18(24)20(13-17)29-30-31(11-12-33-15(2)32)14-16-7-5-4-6-8-16/h4-10,13H,3,11-12,14H2,1-2H3,(H4,25,26,27,28)",467.95124,-5.368806270365,-1.1455993106050002,4.22320695976,4.644943513347498
000001988,CCOCN(c1c(C)cccc1CC)C(=O)CCl,C14H20ClNO2,"InChI=1S/C14H20ClNO2/c1-4-12-8-6-7-11(3)14(12)16(10-18-5-2)13(17)9-15/h6-8H,4-5,9-10H2,1-3H3",269.7671,-6.642299090705,-0.5006894849199997,6.141609605785001,3.6309260086267248
000001989,O=C(NS(=O)(=O)c1ccc(cc1)C(=O)C)NC1CCCCC1,C15H20N2O4S,"InChI=1S/C15H20N2O4S/c1-11(18)12-7-9-14(10-8-12)22(20,21)17-15(19)16-13-5-3-2-4-6-13/h7-10,13H,2-6H2,1H3,(H2,16,17,19)",324.3953,-6.859990171105,-1.515674147285,5.34431602382,3.1417433927451808
000001990,CC(=O)NO,C2H5NO2,"InChI=1S/C2H5NO2/c1-2(4)3-5/h5H,1H3,(H,3,4)",75.0666,-6.419165733295,0.03809593906999975,6.457261672365,2.6786838054279567
000001994,CC(=CCSCC(C(=O)O)NC(=O)C)CCC=C(CCC=C(C)C)C,C20H33NO3S,"InChI=1S/C20H33NO3S/c1-15(2)8-6-9-16(3)10-7-11-17(4)12-13-25-14-19(20(23)24)21-18(5)22/h8,10,12,19H,6-7,9,11,13-14H2,1-5H3,(H,21,22)(H,23,24)",367.54592,-5.888543724820001,-0.3591902826600002,5.529353442160001,5.824761726051376
000001995,CC(CC(C(=O)O)NC(=O)C)C,C8H15NO3,"InChI=1S/C8H15NO3/c1-5(2)4-7(8(11)12)9-6(3)10/h5,7H,4H2,1-3H3,(H,9,10)(H,11,12)",173.2096,-6.83549992456,-0.11973009422000036,6.715769830339999,5.582381480233325
000001999,CCC(c1ccccc1)C(=O)NC(=O)NC(=O)C,C13H16N2O3,"InChI=1S/C13H16N2O3/c1-3-11(10-7-5-4-6-8-10)12(17)15-13(18)14-9(2)16/h4-8,11H,3H2,1-2H3,(H2,14,15,16,17,18)",248.27774,-6.664068198745,-0.9578407537600002,5.706227444985,5.486402123190753
000002000,OC(=O)C(Cc1ccccc1)NC(=O)C,C11H13NO3,"InChI=1S/C11H13NO3/c1-8(13)12-10(11(14)15)7-9-5-3-2-4-6-9/h2-6,10H,7H2,1H3,(H,12,13)(H,14,15)",207.22582,-6.783798292965,-0.46531468435499956,6.31848360861,5.972217598407647
000002002,CC(=O)NC(C(=O)O)Cc1c[nH]c2c1cccc2,C13H14N2O3,"InChI=1S/C13H14N2O3/c1-8(16)15-12(13(17)18)6-9-7-14-11-5-3-2-4-10(9)11/h2-5,7,12,14H,6H2,1H3,(H,15,16)(H,17,18)",246.26186,-5.74704452256,-0.6095350251200005,5.13750949744,7.098230705308894
000002003,CC(=O)NC(C(=O)N)Cc1c[nH]c2c1cccc2,C13H15N3O2,"InChI=1S/C13H15N3O2/c1-8(17)16-12(13(14)18)6-9-7-15-11-5-3-2-4-10(9)11/h2-5,7,12,15H,6H2,1H3,(H2,14,18)(H,16,17)",245.2771,-5.586497350765001,-0.4489878533249998,5.137509497440001,2.8725132405129137
000002004,CCOC(=O)C(Cc1ccc(cc1)O)NC(=O)C,C13H17NO4,"InChI=1S/C13H17NO4/c1-3-18-13(17)12(14-9(2)15)8-10-4-6-11(16)7-5-10/h4-7,12,16H,3,8H2,1-2H3,(H,14,15)",251.27838,-5.71983313751,0.01904796953500032,5.7388811070450005,3.5253577607640048
000002005,OC(=O)CCCCCNC(=O)C,C8H15NO3,"InChI=1S/C8H15NO3/c1-7(10)9-6-4-2-3-5-8(11)12/h2-6H2,1H3,(H,9,10)(H,11,12)",173.2096,-6.79196170848,0.35374800565,7.14570971413,7.624228378176837
000002006,OC(=O)C(=O)Nc1cccc(c1)c1n[nH]nn1,C9H7N5O3,"InChI=1S/C9H7N5O3/c15-8(9(16)17)10-6-3-1-2-5(4-6)7-11-13-14-12-7/h1-4H,(H,10,15)(H,16,17)(H,11,12,13,14)",233.18358,-6.5851551821,-1.9537774465900002,4.63137773551,1.2296594099355318
000002007,NC(C(=O)O)C1CC(=NO1)Cl,C5H7ClN2O3,"InChI=1S/C5H7ClN2O3/c6-3-1-2(11-8-3)4(7)5(9)10/h2,4H,1,7H2,(H,9,10)",178.57368,-7.077681251505,-0.99593669283,6.081744558675,4.071155672130458
000002013,CCCCCC=CCC=CCC=CCC=CCCCC(=O)NCCC1CC1,C25H41NO,"InChI=1S/C25H41NO/c1-2-3-4-5-6-7-8-9-10-11-12-13-14-15-16-17-18-19-25(27)26-23-22-24-20-21-24/h6-7,9-10,12-13,15-16,24H,2-5,8,11,14,17-23H2,1H3,(H,26,27)",371.59914,-6.16065757532,0.25306588096499993,6.413723456285,3.3425958350469176
000002014,O=C(Nc1ccc(cc1)Cl)Nc1ccc(cc1)C(=N)N,C14H13ClN4O,"InChI=1S/C14H13ClN4O/c15-10-3-7-12(8-4-10)19-14(20)18-11-5-1-9(2-6-11)13(16)17/h1-8H,(H3,16,17)(H2,18,19,20)",288.73222,-5.7905827386399995,-0.7156594268149998,5.074923311825,5.031047117206218
000002015,O=c1c2ccccc2[nH]c2c1cccc2,C13H9NO,"InChI=1S/C13H9NO/c15-13-9-5-1-3-7-11(9)14-12-8-4-2-6-10(12)13/h1-8H,(H,14,15)",195.21666,-5.62187215133,-1.4911839007400003,4.1306882505899996,4.786296327477646
000002017,CCOc1ccc2c(c1)c(N)c1c(n2)cc(cc1)N,C15H15N3O,"InChI=1S/C15H15N3O/c1-2-19-10-4-6-13-12(8-10)15(17)11-5-3-9(16)7-14(11)18-13/h3-8H,2,16H2,1H3,(H2,17,18)",253.2991,-4.552464718865,-1.27349282034,3.278971898525,2.675798398576956
000002018,OC(=O)Cc1ccc(cc1)NC(=O)C,C10H11NO3,"InChI=1S/C10H11NO3/c1-7(12)11-9-4-2-8(3-5-9)6-10(13)14/h2-5H,6H2,1H3,(H,11,12)(H,13,14)",193.19924,-6.18242668336,-0.7102171498049996,5.4722095335550005,6.0166125008660805
000002020,CCCCCC(C(=O)NC(C(=O)N1CCCC1CO)C(C)C)CC(=O)NO,C19H35N3O5,"InChI=1S/C19H35N3O5/c1-4-5-6-8-14(11-16(24)21-27)18(25)20-17(13(2)3)19(26)22-10-7-9-15(22)12-23/h13-15,17,23,27H,4-12H2,1-3H3,(H,20,25)(H,21,24)",385.4983,-6.2014746528949996,-0.5986504711,5.6028241817949995,3.7114145922623627
000002021,CNC1C(O)C2OC3OC(C)CC(=O)C3(OC2C(C1O)NC)O,C14H24N2O7,"InChI=1S/C14H24N2O7/c1-5-4-6(17)14(20)13(21-5)22-12-10(19)7(15-2)9(18)8(16-3)11(12)23-14/h5,7-13,15-16,18-20H,4H2,1-3H3",332.34956,-5.597381904785,-1.06124401695,4.536137887835,3.1123633275710274
000002022,Nc1nc(=O)c2c([nH]1)n(COCCO)cn2,C8H11N5O3,"InChI=1S/C8H11N5O3/c9-8-11-6-5(7(15)12-8)10-3-13(6)4-16-2-1-14/h3,14H,1-2,4H2,(H3,9,11,12,15)",225.20464,-5.94296649492,-0.5061317619299999,5.43683473299,10.115203916670241
000002024,OCC1OC(C2C1OP(=O)(O2)O)n1cnc2c1ncnc2N,C10H12N5O6P,"InChI=1S/C10H12N5O6P/c11-8-5-9(13-2-12-8)15(3-14-5)10-7-6(4(1-16)19-10)20-22(17,18)21-7/h2-4,6-7,10,16H,1H2,(H,17,18)(H2,11,12,13)",329.205941,-5.85044778575,-0.68572690326,5.16472088249,4.061189665440657
000002025,OC1C(O)C(OC1n1cnc2c1ncnc2N)COP(=O)(S)O,C10H14N5O6PS,"InChI=1S/C10H14N5O6PS/c11-8-5-9(13-2-12-8)15(3-14-5)10-7(17)6(16)4(21-10)1-20-22(18,19)23/h2-4,6-7,10,16-17H,1H2,(H2,11,12,13)(H2,18,19,23)",363.286821,-6.0572543121299995,-0.8544374905699996,5.20281682156,2.6975381138751313
000002031,CCN(CCOC(=O)C(c1ccccc1)c1ccccc1)CC,C20H25NO2,"InChI=1S/C20H25NO2/c1-3-21(4-2)15-16-23-20(22)19(17-11-7-5-8-12-17)18-13-9-6-10-14-18/h5-14,19H,3-4,15-16H2,1-2H3",311.418,-5.733438830035,-0.24490246545000005,5.488536364585,1.161716718236421
000002032,CCCCCCCCCCN(c1cc(CO)cc(c1)NC(=O)C)C,C20H34N2O2,"InChI=1S/C20H34N2O2/c1-4-5-6-7-8-9-10-11-12-22(3)20-14-18(16-23)13-19(15-20)21-17(2)24/h13-15,23H,4-12,16H2,1-3H3,(H,21,24)",334.49616,-5.06675989631,-0.09251870917000016,4.97424118714,5.360568905354076
000002033,CCCCCC=CCC=CCC=CCC=CCCCCCC(=O)O,C22H36O2,"InChI=1S/C22H36O2/c1-2-3-4-5-6-7-8-9-10-11-12-13-14-15-16-17-18-19-20-21-22(23)24/h6-7,9-10,12-13,15-16H,2-5,8,11,14,17-21H2,1H3,(H,23,24)",332.52004,-6.22596489944,0.22585449591499973,6.451819395355,4.096141364698489
000002035,CCCCCC=CCC=CCC=CCC=CCCCC(=O)OCCO,C22H36O3,"InChI=1S/C22H36O3/c1-2-3-4-5-6-7-8-9-10-11-12-13-14-15-16-17-18-19-22(24)25-21-20-23/h6-7,9-10,12-13,15-16,23H,2-5,8,11,14,17-21H2,1H3",348.51944,-6.2014746528949996,0.035374800565000086,6.23684945346,2.5264698654806867
000002040,FCc1nc2ccc(cc2c(=O)n1c1ccccc1C)N,C16H14FN3O,"InChI=1S/C16H14FN3O/c1-10-4-2-3-5-14(10)20-15(9-17)19-13-7-6-11(18)8-12(13)16(20)21/h2-8H,9,18H2,1H3",283.3002632,-5.488536364585,-1.1292724795750004,4.35926388501,1.815144552855502
000002041,N#CC(=Cc1ccc(cc1)[N+](=O)[O-])C#N,C10H5N3O2,InChI=1S/C10H5N3O2/c11-6-9(7-12)5-8-1-3-10(4-2-8)13(14)15/h1-5H,199.1656,-7.923955326560001,-3.38509630022,4.538859026340001,3.4472414445264783
000002042,N#CC(=Cc1ccc2c(c1)cc[nH]2)C(=C(C#N)C#N)N,C15H9N5,"InChI=1S/C15H9N5/c16-7-12(15(19)13(8-17)9-18)6-10-1-2-14-11(5-10)3-4-20-14/h1-6,20H,19H2",259.26546,-6.11711935924,-2.3755539148650002,3.741565444375,8.615838814396426
000002045,N#CC(=Cc1ccc(cc1)O)C(=C(C#N)C#N)N,C13H8N4O,"InChI=1S/C13H8N4O/c14-6-10(13(17)11(7-15)8-16)5-9-1-3-12(18)4-2-9/h1-5,18H,17H2",236.22882,-6.49263647293,-2.533379948155,3.9592565247750002,6.63961571428686
000002046,N#CC(=Cc1ccc(c(c1)O)[N+](=O)[O-])C#N,C10H5N3O3,"InChI=1S/C10H5N3O3/c11-5-8(6-12)3-7-1-2-9(13(15)16)10(14)4-7/h1-4,14H",215.165,-7.265439808350001,-3.4041442697549997,3.861295538595001,3.337585729482615
000002048,Cc1cc2ncc(nc2cc1C)c1ccccc1,C16H14N2,"InChI=1S/C16H14N2/c1-11-8-14-15(9-12(11)2)18-16(10-17-14)13-6-4-3-5-7-13/h3-10H,1-2H3",234.29576,-6.185147821865,-1.7632977512399997,4.421850070625,1.1050627940099151
000002049,COc1cc2nc(cnc2cc1OC)c1ccccc1,C16H14N2O2,"InChI=1S/C16H14N2O2/c1-19-15-8-12-13(9-16(15)20-2)18-14(10-17-12)11-6-4-3-5-7-11/h3-10H,1-2H3",266.29456,-5.730717691530001,-1.5483278093449995,4.182389882185001,1.3597878247984132
000002051,COc1cc2c(ncnc2cc1OC)Nc1cccc(c1)Cl,C16H14ClN3O2,"InChI=1S/C16H14ClN3O2/c1-21-14-7-12-13(8-15(14)22-2)18-9-19-16(12)20-11-5-3-4-10(17)6-11/h3-9H,1-2H3,(H,18,19,20)",315.75426,-5.581055073755,-1.26260826632,4.318446807435,3.5535003857014003
000002052,N#CC(=Cc1ccc(c(c1)O)O)C#N,C10H6N2O2,"InChI=1S/C10H6N2O2/c11-5-8(6-12)3-7-1-2-9(13)10(14)4-7/h1-4,13-14H",186.16684,-6.321204747115,-2.489841732075,3.83136301504,7.422270910281435
000002054,N#CC(=Cc1ccc(c(c1)O)O)C(=O)O,C10H7NO4,"InChI=1S/C10H7NO4/c11-5-7(10(14)15)3-6-1-2-8(12)9(13)4-6/h1-4,12-13H,(H,14,15)",205.16688,-6.245012868975,-2.42725554646,3.8177573225150003,6.399431094692246
000002055,N#CC(=Cc1ccc(c(c1)O)O)C(=O)Nc1ccccc1,C16H12N2O3,"InChI=1S/C16H12N2O3/c17-10-12(8-11-6-7-14(19)15(20)9-11)16(21)18-13-4-2-1-3-5-13/h1-9,19-20H,(H,18,21)",280.27808,-5.921197386879999,-1.825883936855,4.0953134500249995,3.8246037901812784
000002056,N#CC(=Cc1ccc(c(c1)O)O)C(=O)NC(c1ccccc1)C,C18H16N2O3,"InChI=1S/C18H16N2O3/c1-12(14-5-3-2-4-6-14)20-18(23)15(11-19)9-13-7-8-16(21)17(22)10-13/h2-10,12,21-22H,1H3,(H,20,23)",308.33124,-5.831399816215,-1.6789424575850003,4.1524573586299995,3.838345369073893
000002057,N#CC(=Cc1ccc(c(c1)O)O)C(=O)c1ccc(c(c1)O)O,C16H11NO5,"InChI=1S/C16H11NO5/c17-8-11(5-9-1-3-12(18)14(20)6-9)16(22)10-2-4-13(19)15(21)7-10/h1-7,18-21H",297.26224,-5.89942827884,-2.08439209483,3.81503618401,2.101432190280238
000002058,N#CC(=Cc1ccc(c(c1)O)O)C(=O)NCCCc1ccccc1,C19H18N2O3,"InChI=1S/C19H18N2O3/c20-13-16(11-15-8-9-17(22)18(23)12-15)19(24)21-10-4-7-14-5-2-1-3-6-14/h1-3,5-6,8-9,11-12,22-23H,4,7,10H2,(H,21,24)",322.35782,-5.831399816215,-1.7061538426350005,4.125245973579999,3.690160141027622
000002059,N#CC(=Cc1ccc(c(c1)O)O)C(=O)NCCCCc1ccccc1,C20H20N2O3,"InChI=1S/C20H20N2O3/c21-14-17(12-16-9-10-18(23)19(24)13-16)20(25)22-11-5-4-8-15-6-2-1-3-7-15/h1-3,6-7,9-10,12-13,23-24H,4-5,8,11H2,(H,22,25)",336.3844,-5.861332339770001,-1.7143172581500004,4.14701508162,4.113893615011939
000002061,N#CC(=Cc1cc(O)c(c(c1)O)O)C#N,C10H6N2O3,"InChI=1S/C10H6N2O3/c11-4-7(5-12)1-6-2-8(13)10(15)9(14)3-6/h1-3,13-15H",202.16624,-6.26406083851,-2.5197742556300002,3.7442865828799996,6.2585954365619445
000002062,N#CC(=Cc1cc(CSc2nc3c(s2)cccc3)c(c(c1)OC)O)C(=O)N,C19H15N3O3S2,"InChI=1S/C19H15N3O3S2/c1-25-15-8-11(6-12(9-20)18(21)24)7-13(17(15)23)10-26-19-22-14-4-2-3-5-16(14)27-19/h2-8,23H,10H2,1H3,(H2,21,24)",397.4707,-5.7143908605,-1.99187338566,3.72251747484,3.1660363792641424
000002063,COc1ccc(cc1)C=C(C#N)C#N,C11H8N2O,"InChI=1S/C11H8N2O/c1-14-11-4-2-9(3-5-11)6-10(7-12)8-13/h2-6H,1H3",184.19402,-6.462703949375,-2.4980051475900003,3.964698801785,7.217627226307894
000002064,COC(=O)c1ccc(cc1)NCc1cc(O)ccc1O,C15H15NO4,"InChI=1S/C15H15NO4/c1-20-15(19)10-2-4-12(5-3-10)16-9-11-8-13(17)6-7-14(11)18/h2-8,16-18H,9H2,1H3",273.2839,-5.298056669235001,-0.9823310003049999,4.315725668930001,2.7014017572443754
000002065,N#CC(=Cc1ccc(c(c1)O)O)C(=O)N,C10H8N2O3,"InChI=1S/C10H8N2O3/c11-5-7(10(12)15)3-6-1-2-8(13)9(14)4-6/h1-4,13-14H,(H2,12,15)",204.18212,-6.00283154203,-2.02996932473,3.9728622173,3.4420632378086835
000002066,CC(=CCSCC(C(=O)O)NC(=O)C)CCC=C(C)C,C15H25NO3S,"InChI=1S/C15H25NO3S/c1-11(2)6-5-7-12(3)8-9-20-10-14(15(18)19)16-13(4)17/h6,8,14H,5,7,9-10H2,1-4H3,(H,16,17)(H,18,19)",299.4289,-5.8831014478100006,-0.41089191425500005,5.4722095335550005,5.383600467204638
000002067,CC(=CCCC(=CCSCC(C(=O)O)NC(=O)C)C)CCC=C(CCC=C(C)C)C,C25H41NO3S,"InChI=1S/C25H41NO3S/c1-19(2)10-7-11-20(3)12-8-13-21(4)14-9-15-22(5)16-17-30-18-24(25(28)29)26-23(6)27/h10,12,14,16,24H,7-9,11,13,15,17-18H2,1-6H3,(H,26,27)(H,28,29)",435.66294,-5.61098759731,-0.4054496372449998,5.2055379600650005,4.789034612576005
000002068,CC(C1C2CCC(C1N)C2)C,C10H19N,"InChI=1S/C10H19N/c1-6(2)9-7-3-4-8(5-7)10(9)11/h6-10H,3-5,11H2,1-2H3",153.26456,-5.85589006276,2.076228679315,7.932118742075001,1.3422802017417972
000002071,OC(=O)c1ccc2c(c1)CCC2(N)C(=O)O,C11H11NO4,"InChI=1S/C11H11NO4/c12-11(10(15)16)4-3-6-5-7(9(13)14)1-2-8(6)11/h1-2,5H,3-4,12H2,(H,13,14)(H,15,16)",221.20934,-7.001489373365,-1.2734928203400004,5.727996553024999,3.827124303203255
000002072,Nc1cccc2c1cc[nH]c2=O,C9H8N2O,"InChI=1S/C9H8N2O/c10-8-3-1-2-7-6(8)4-5-11-9(7)12/h1-5H,10H2,(H,11,12)",160.17262,-5.265403007175,-0.8626009060850004,4.40280210109,4.570008200874152
000002073,CCC1C2CC3N(C1O)C1C2C(O)C2(C3N(C)c3c2cccc3)C1,C20H26N2O2,"InChI=1S/C20H26N2O2/c1-3-10-11-8-14-17-20(12-6-4-5-7-13(12)21(17)2)9-15(16(11)18(20)23)22(14)19(10)24/h4-7,10-11,14-19,23-24H,3,8-9H2,1-2H3",326.43264,-5.19193226754,-0.12245123272500003,5.069481034815,1.2723292923622407
000002075,NC(=O)c1ccc(cc1Cl)[N+](=O)[O-],C7H5ClN2O3,"InChI=1S/C7H5ClN2O3/c8-6-3-4(10(12)13)1-2-5(6)7(9)11/h1-3H,(H2,9,11)",200.5792,-7.36340079453,-2.79188810613,4.5715126884,3.8643842189610234
000002077,CC(=O)SCC(C(=O)N1CCCC1C(=O)NC(C(=O)O)Cc1ccccc1)C,C20H26N2O5S,"InChI=1S/C20H26N2O5S/c1-13(12-28-14(2)23)19(25)22-10-6-9-17(22)18(24)21-16(20(26)27)11-15-7-4-3-5-8-15/h3-5,7-8,13,16-17H,6,9-12H2,1-2H3,(H,21,24)(H,26,27)",406.49584,-6.19875351439,-0.7020537342899997,5.4966997801,2.0668566947055136
000002078,COCN(c1c(CC)cccc1CC)C(=O)CCl,C14H20ClNO2,"InChI=1S/C14H20ClNO2/c1-4-11-7-6-8-12(5-2)14(11)16(10-18-3)13(17)9-15/h6-8H,4-5,9-10H2,1-3H3",269.7671,-6.66134706024,-0.476199238375,6.185147821865,3.804072021001837
000002079,NCCC(=O)NC(C(=O)O)CC(C)C,C9H18N2O3,"InChI=1S/C9H18N2O3/c1-6(2)5-7(9(13)14)11-8(12)3-4-10/h6-7H,3-5,10H2,1-2H3,(H,11,12)(H,13,14)",202.25082,-6.5116844424650004,-0.14966261777500023,6.36202182469,5.1816410417251015
000002080,CC(C(=O)NC(C(=O)O)Cc1ccccc1)N,C12H16N2O3,"InChI=1S/C12H16N2O3/c1-8(13)11(15)14-10(12(16)17)7-9-5-3-2-4-6-9/h2-6,8,10H,7,13H2,1H3,(H,14,15)(H,16,17)",236.26704,-6.71576983034,-0.4843626538899999,6.23140717645,4.791295164866907
000002081,CC(C(=O)OC(Cc1ccc(cc1)Cl)(C)C)N,C13H18ClNO2,"InChI=1S/C13H18ClNO2/c1-9(15)12(16)17-13(2,3)8-10-4-6-11(14)7-5-10/h4-7,9H,8,15H2,1-3H3",255.74052,-6.386512071235,-0.48708379239499955,5.89942827884,0.8617496167541938
000002082,CCCSc1ccc2c(c1)[nH]c(n2)NC(=O)OC,C12H15N3O2S,"InChI=1S/C12H15N3O2S/c1-3-6-18-8-4-5-9-10(7-8)14-11(13-9)15-12(16)17-2/h4-5,7H,3,6H2,1-2H3,(H2,13,14,15,16)",265.3314,-5.053154203785001,-0.5006894849199997,4.552464718865001,3.0203997494896266
000002083,OCc1cc(ccc1O)C(CNC(C)(C)C)O,C13H21NO3,"InChI=1S/C13H21NO3/c1-13(2,3)14-7-12(17)9-4-5-11(16)10(6-9)8-15/h4-6,12,14-17H,7-8H2,1-3H3",239.31074,-5.733438830035,-0.3292577591050003,5.40418107093,2.2031835626749303
000002084,CCCOc1ccc(cc1Cl)CC(=O)O,C11H13ClO3,"InChI=1S/C11H13ClO3/c1-2-5-15-10-4-3-8(6-9(10)12)7-11(13)14/h3-4,6H,2,5,7H2,1H3,(H,13,14)",228.67212,-6.24229173047,-0.8027358589749998,5.439555871495,4.956964915934548
000002086,CNC(=O)ON=CC(SC)(C)C,C7H14N2O2S,"InChI=1S/C7H14N2O2S/c1-7(2,12-4)5-9-11-6(10)8-3/h5H,1-4H3,(H,8,10)",190.26326,-5.940245356415,-0.4081707757500004,5.532074580664999,3.1062947872143427
000002087,ClC1=C(Cl)C2(C(C1(Cl)C1C2C2CC1C=C2)(Cl)Cl)Cl,C12H8Cl6,"InChI=1S/C12H8Cl6/c13-8-9(14)11(16)7-5-2-1-4(3-5)6(7)10(8,15)12(11,17)18/h1-2,4-7H,3H2",364.90992,-6.522568996485,-0.9387927842249999,5.58377621226,3.3238320630287563