mol_id,SMILES,formula,inchi,mass,HOMO(eV),LUMO(eV),GAP(eV),dipole_moment
000003966,C1CCC2N(C1)CC1CC2CN2C1CCCC2,C15H26N2,"InChI=1S/C15H26N2/c1-3-7-16-11-13-9-12(14(16)5-1)10-17-8-4-2-6-15(13)17/h12-15H,1-11H2",234.38034,-5.412344486445,2.0381327402449996,7.4504772266899995,0.9466181664868892
000003968,CCNCc1cc(c(c(c1)C(C)(C)C)O)C(C)(C)C,C17H29NO,"InChI=1S/C17H29NO/c1-8-18-11-12-9-13(16(2,3)4)15(19)14(10-12)17(5,6)7/h9-10,18-19H,8,11H2,1-7H3",263.41826,-5.5728916582400005,0.23129677292499995,5.8041884311650005,2.79110190145523
000003969,CCCc1c(OCCCCc2n[nH]nn2)ccc(c1O)C(=O)C,C16H22N4O3,"InChI=1S/C16H22N4O3/c1-3-6-13-14(9-8-12(11(2)21)16(13)22)23-10-5-4-7-15-17-19-20-18-15/h8-9,22H,3-7,10H2,1-2H3,(H,17,18,19,20)",318.37088,-5.997389265020001,-0.9170236761849999,5.080365588835001,4.239659402648756
000003970,CN1C2CCC1CC(C2)NC(=O)c1nn(c2c1cccc2)C,C17H22N4O,"InChI=1S/C17H22N4O/c1-20-12-7-8-13(20)10-11(9-12)18-17(22)16-14-5-3-4-6-15(14)21(2)19-16/h3-6,11-13H,7-10H2,1-2H3,(H,18,22)",298.38278,-5.553843688705,-1.1102245100400001,4.443619178665,3.6470881784065763
000003971,O=c1cc(oc2c1cccc2c1ccccc1)N1CCNCC1,C19H18N2O2,"InChI=1S/C19H18N2O2/c22-17-13-18(21-11-9-20-10-12-21)23-19-15(7-4-8-16(17)19)14-5-2-1-3-6-14/h1-8,13,20H,9-12H2",306.35842,-5.771534769105,-1.0802919864850002,4.69124278262,5.005712611347659
000003972,CC(C(O)C)OC(=O)C1CN(C)C2C(C1)c1cccc3c1c(C2)cn3C(C)C,C23H32N2O3,"InChI=1S/C23H32N2O3/c1-13(2)25-12-16-10-21-19(18-7-6-8-20(25)22(16)18)9-17(11-24(21)5)23(27)28-15(4)14(3)26/h6-8,12-15,17,19,21,26H,9-11H2,1-5H3",384.51178,-5.1402306359450005,-0.16871058730999966,4.971520048635001,3.2590163060547885
000003973,O=c1cc(oc2c1cccc2c1ccccc1)N1CCOCC1,C19H17NO3,"InChI=1S/C19H17NO3/c21-17-13-18(20-9-11-22-12-10-20)23-19-15(7-4-8-16(17)19)14-5-2-1-3-6-14/h1-8,13H,9-12H2",307.34318,-5.853168924255001,-1.15376272612,4.699406198135001,4.335933539200757
000003974,OC(=O)CCC(C(=O)O)NC(=O)c1ccc(cc1)N1CC2N(C1=O)c1c(NC2)[nH]c(nc1=O)N,C20H21N7O7,"InChI=1S/C20H21N7O7/c21-19-24-15-14(17(31)25-19)27-11(7-22-15)8-26(20(27)34)10-3-1-9(2-4-10)16(30)23-12(18(32)33)5-6-13(28)29/h1-4,11-12H,5-8H2,(H,23,30)(H,28,29)(H,32,33)(H4,21,22,24,25,31)",471.42344,-5.597381904785,-1.1211090640599997,4.4762728407250005,12.559745373108207
000003975,OC(=O)CCC(C(=O)O)NC(=O)c1ccc(cc1)NC(=O)Nc1[nH]c(N)nc(=O)c1N,C17H19N7O7,"InChI=1S/C17H19N7O7/c18-11-12(22-16(19)24-14(11)28)23-17(31)20-8-3-1-7(2-4-8)13(27)21-9(15(29)30)5-6-10(25)26/h1-4,9H,5-6,18H2,(H,21,27)(H,25,26)(H,29,30)(H5,19,20,22,23,24,28,31)",433.37546,-5.91575510987,-1.1973009422,4.71845416767,6.80526801580048
000003976,O=C1C=C(Nc2ccccc2)C(=O)c2c1nccc2,C15H10N2O2,"InChI=1S/C15H10N2O2/c18-13-9-12(17-10-5-2-1-3-6-10)15(19)11-7-4-8-16-14(11)13/h1-9,17H",250.2521,-5.91031283286,-2.903454784835,3.006858048025,3.9679227978107137
000003978,OC1C=C2CCN3C2C(C1O)c1cc2OCOc2cc1C3,C16H17NO4,"InChI=1S/C16H17NO4/c18-11-3-8-1-2-17-6-9-4-12-13(21-7-20-12)5-10(9)14(15(8)17)16(11)19/h3-5,11,14-16,18-19H,1-2,6-7H2",287.31048,-5.20281682156,0.07074960113000017,5.27356642269,2.2476910840838427
000003979,OCC1NC(=O)C(C(C)C)N(c2c3c(C1)c[nH]c3c(cc2)C(CCC=C(C)C)(C=C)C)C,C27H39N3O2,"InChI=1S/C27H39N3O2/c1-8-27(6,13-9-10-17(2)3)21-11-12-22-23-19(15-28-24(21)23)14-20(16-31)29-26(32)25(18(4)5)30(22)7/h8,10-12,15,18,20,25,28,31H,1,9,13-14,16H2,2-7H3,(H,29,32)",437.61746,-5.19193226754,-0.3183732050849999,4.8735590624550005,6.75742202994204
000003981,CCN(C(=O)C1CN(C)C2C(=C1)c1cccc3c1c(C2)c[nH]3)CC,C20H25N3O,"InChI=1S/C20H25N3O/c1-4-23(5-2)20(24)14-9-16-15-7-6-8-17-19(15)13(11-21-17)10-18(16)22(3)12-14/h6-9,11,14,18,21H,4-5,10,12H2,1-3H3",323.432,-5.11029811239,-0.7401496733599995,4.37014843903,3.690304046807661
000003982,OCC1CN(C)C2C(=C1)c1cccc3c1c(C2)c[nH]3,C16H18N2O,"InChI=1S/C16H18N2O/c1-18-8-10(9-19)5-13-12-3-2-4-14-16(12)11(7-17-14)6-15(13)18/h2-5,7,10,15,17,19H,6,8-9H2,1H3",254.32692,-4.351100469495,-1.439482269145,2.91161820035,3.901689190581946
000003983,CCCCCCCCCCCCCCCCOCC(COP(=O)(OCC[N+](C)(C)C)[O-])O,C24H52NO6P,"InChI=1S/C24H52NO6P/c1-5-6-7-8-9-10-11-12-13-14-15-16-17-18-20-29-22-24(26)23-31-32(27,28)30-21-19-25(2,3)4/h24,26H,5-23H2,1-4H3",481.646541,-6.128003913260001,0.5632756705349999,6.6912795837950005,12.032726702920208
000003988,CCCCCCCCC=CCCCCCCCC(=O)OCC(COP(=O)(O)O)O,C21H41O7P,"InChI=1S/C21H41O7P/c1-2-3-4-5-6-7-8-9-10-11-12-13-14-15-16-17-21(23)27-18-20(22)19-28-29(24,25)26/h9-10,20,22H,2-8,11-19H2,1H3,(H2,24,25,26)",436.519801,-6.31848360861,-0.05170163159499985,6.266781977015,0.708832155070578
000003989,NCCCCC(C(=O)NC(C(=O)NC(C(=O)O)CCCCN)Cc1c[nH]c2c1cccc2)N,C23H36N6O4,"InChI=1S/C23H36N6O4/c24-11-5-3-8-17(26)21(30)29-20(13-15-14-27-18-9-2-1-7-16(15)18)22(31)28-19(23(32)33)10-4-6-12-25/h1-2,7,9,14,17,19-20,27H,3-6,8,10-13,24-26H2,(H,28,31)(H,29,30)(H,32,33)",460.56974,-5.3279891927900005,-0.23401791142999961,5.093971281360001,5.075842705502703
000003990,NCCCCC(C(=O)NC(C(=O)NC(C(=O)O)CCCCN)Cc1ccc(cc1)O)N,C21H35N5O5,"InChI=1S/C21H35N5O5/c22-11-3-1-5-16(24)19(28)26-18(13-14-7-9-15(27)10-8-14)20(29)25-17(21(30)31)6-2-4-12-23/h7-10,16-18,27H,1-6,11-13,22-24H2,(H,25,29)(H,26,28)(H,30,31)",437.5331,-5.74160224555,-0.2911618200349997,5.4504404255150005,7.679227129481911
000003993,[O-][N+](=O)c1cccc(c1)NCCOP(=O)(OP(=O)(O)O)O,C8H12N2O9P2,"InChI=1S/C8H12N2O9P2/c11-10(12)8-3-1-2-7(6-8)9-4-5-18-21(16,17)19-20(13,14)15/h1-3,6,9H,4-5H2,(H,16,17)(H2,13,14,15)",342.136402,-5.632756705349999,-1.9564985850950003,3.676258120254999,9.118748156337798
000003994,ONC(=O)CCCCCCNC(=O)c1ccc(cc1)N(C)C,C16H25N3O3,"InChI=1S/C16H25N3O3/c1-19(2)14-10-8-13(9-11-14)16(21)17-12-6-4-3-5-7-15(20)18-22/h8-11,22H,3-7,12H2,1-2H3,(H,17,21)(H,18,20)",307.388,-5.43139245598,-0.32653662059999977,5.10485583538,5.9254924260301784
000003995,OC(c1cc(Cl)c(c(c1)C(F)(F)F)N)CNC(C)(C)C,C13H18ClF3N2O,"InChI=1S/C13H18ClF3N2O/c1-12(2,3)19-6-10(20)7-4-8(13(15,16)17)11(18)9(14)5-7/h4-5,10,19-20H,6,18H2,1-3H3",310.7430296,-5.684458336945,-0.7238228423299997,4.960635494615,1.7707760236373769
000003998,NCc1ccc(cc1)S(=O)(=O)N,C7H10N2O2S,"InChI=1S/C7H10N2O2S/c8-5-6-1-3-7(4-2-6)12(9,10)11/h1-4H,5,8H2,(H2,9,10,11)",186.2315,-6.664068198745,-1.1292724795749995,5.534795719170001,5.453938139802009
000004000,CC(=CCc1c(O)c(C)cc2c1[nH]c1c2cccc1)CCC=C(C)C,C23H27NO,"InChI=1S/C23H27NO/c1-15(2)8-7-9-16(3)12-13-19-22-20(14-17(4)23(19)25)18-10-5-6-11-21(18)24-22/h5-6,8,10-12,14,24-25H,7,9,13H2,1-4H3",333.46658,-5.16472088249,-0.4081707757500004,4.75655010674,1.583292242129671
000004002,NC1=CC2=NCCc3c2c(C1=O)n(C)c3,C11H11N3O,"InChI=1S/C11H11N3O/c1-14-5-6-2-3-13-8-4-7(12)11(15)10(14)9(6)8/h4-5H,2-3,12H2,1H3",201.22454,-5.461324979535,-2.092555510345,3.36876946919,2.4390797695508035
000004003,CC(=O)NCCCCC(C(=O)Nc1ccc2c(c1)oc(=O)cc2C)NC(=O)OC(C)(C)C,C23H31N3O6,"InChI=1S/C23H31N3O6/c1-14-12-20(28)31-19-13-16(9-10-17(14)19)25-21(29)18(8-6-7-11-24-15(2)27)26-22(30)32-23(3,4)5/h9-10,12-13,18H,6-8,11H2,1-5H3,(H,24,27)(H,25,29)(H,26,30)",445.50874,-5.80690956967,-1.61635627197,4.1905532977,5.671614808540951
000004004,CCOC(=O)CC(C(=O)OCC)SP(=S)(OC)OC,C10H19O6PS2,"InChI=1S/C10H19O6PS2/c1-5-15-9(11)7-8(10(12)16-6-2)19-17(18,13-3)14-4/h8H,5-7H2,1-4H3",330.358021,-6.683116168280001,-0.5823236400700003,6.10079252821,2.773517477988556
000004006,CC(OC(=O)C(=C1SC=CS1)C(=O)OC(C)C)C,C12H16O4S2,"InChI=1S/C12H16O4S2/c1-7(2)15-10(13)9(11(14)16-8(3)4)12-17-5-6-18-12/h5-8H,1-4H3",288.38304,-5.776977046114999,-1.32791559044,4.449061455674999,2.060680326743816
000004007,OCC1OC(C)(O)C(C(C1OC1OC(CO)C(C(C1O)O)O)O)O,C13H24O11,"InChI=1S/C13H24O11/c1-13(21)11(20)9(19)10(5(3-15)24-13)23-12-8(18)7(17)6(16)4(2-14)22-12/h4-12,14-21H,2-3H2,1H3",356.32306,-6.83005764755,1.0258692163849998,7.855926863935,3.0696904942826078
000004009,CC(=CCCC1=CCC(OC1O)C1=CC(=O)OC1O)CCC1=C(C)CCCC1(C)C,C25H36O5,"InChI=1S/C25H36O5/c1-16(10-12-20-17(2)8-6-14-25(20,3)4)7-5-9-18-11-13-21(29-23(18)27)19-15-22(26)30-24(19)28/h7,11,15,21,23-24,27-28H,5-6,8-10,12-14H2,1-4H3",416.55034,-5.891264863325,-1.61635627197,4.2749085913550005,4.676537767519685
000004011,CNCCCC12CCC(c3c1cccc3)c1c2cccc1,C20H23N,"InChI=1S/C20H23N/c1-21-14-6-12-20-13-11-15(16-7-2-4-9-18(16)20)17-8-3-5-10-19(17)20/h2-5,7-10,15,21H,6,11-14H2,1H3",277.40332,-5.94840877193,-0.16054717179499978,5.787861600135,0.5555590061631618
000004014,ONC(=O)C=Cc1[nH]cc(c1)C(=O)c1ccc(cc1)C,C15H14N2O3,"InChI=1S/C15H14N2O3/c1-10-2-4-11(5-3-10)15(19)12-8-13(16-9-12)6-7-14(18)17-20/h2-9,16,20H,1H3,(H,17,18)",270.28326,-5.831399816215,-1.760576612735,4.07082320348,1.3122285951513935
000004015,ONC(=O)C=Cc1[nH]cc(c1)C(=O)c1ccc(cc1)N(C)C,C16H17N3O3,"InChI=1S/C16H17N3O3/c1-19(2)14-6-3-11(4-7-14)16(21)12-9-13(17-10-12)5-8-15(20)18-22/h3-10,17,22H,1-2H3,(H,18,20)",299.32448,-5.521190026645,-1.6653367650600002,3.8558532615849996,3.355057483777886
000004018,OC1CC(O)C(=C)C(=CC=C2CCCC3(C2CCC3C(OCCC(O)(C)C)C)C)C1,C26H42O4,"InChI=1S/C26H42O4/c1-17-20(15-21(27)16-24(17)28)9-8-19-7-6-12-26(5)22(10-11-23(19)26)18(2)30-14-13-25(3,4)29/h8-9,18,21-24,27-29H,1,6-7,10-16H2,2-5H3",418.60928,-5.48037294907,-0.786409027945,4.693963921125,3.003296700485152
000004019,CN1C2CCC(C1CC(C2)OC(=O)C(c1cccs1)(c1cccs1)O)(C)C,C21H27NO3S2,"InChI=1S/C21H27NO3S2/c1-20(2)9-8-14-12-15(13-16(20)22(14)3)25-19(23)21(24,17-6-4-10-26-17)18-7-5-11-27-18/h4-7,10-11,14-16,24H,8-9,12-13H2,1-3H3",405.57398,-5.72527541452,-0.4217764682749996,5.303498946245001,4.5841856620117385
000004020,Clc1ccc(cc1)C1(O)c2ccccc2C2=NCCN12,C16H13ClN2O,"InChI=1S/C16H13ClN2O/c17-12-7-5-11(6-8-12)16(20)14-4-2-1-3-13(14)15-18-9-10-19(15)16/h1-8,20H,9-10H2",284.74022,-5.95929332595,-1.26260826632,4.69668505963,2.194995940605358
000004021,O=C1CC(=NN1c1ccccc1)C,C10H10N2O,"InChI=1S/C10H10N2O/c1-8-7-10(13)12(11-8)9-5-3-2-4-6-9/h2-6H,7H2,1H3",174.1992,-5.624593289835,-0.9605618922649999,4.6640313975700005,3.190249414091005
000004023,Clc1cc(Cl)c2c(c1)[nH]c(c2C=C(c1ccccc1)C(=O)O)C(=O)O,C18H11Cl2NO4,"InChI=1S/C18H11Cl2NO4/c19-10-6-13(20)15-12(16(18(24)25)21-14(15)7-10)8-11(17(22)23)9-4-2-1-3-5-9/h1-8,21H,(H,22,23)(H,24,25)",376.19024,-6.38379093273,-2.2122856045649995,4.171505328165001,4.5247557914443295
000004024,C1CCCCCN=C(CCCCC1)NC1CCCC1c1ccccc1,C23H36N2,"InChI=1S/C23H36N2/c1-2-4-6-11-18-23(24-19-12-7-5-3-1)25-22-17-13-16-21(22)20-14-9-8-10-15-20/h8-10,14-15,21-22H,1-7,11-13,16-19H2,(H,24,25)",340.54534,-5.771534769105,-0.07347073963499984,5.69806402947,2.7366954983499716
000004025,NCCC1CCCC(N1)CCN,C9H21N3,"InChI=1S/C9H21N3/c10-6-4-8-2-1-3-9(12-8)5-7-11/h8-9,12H,1-7,10-11H2",171.28314,-5.82867867771,2.141536003435,7.970214681145,3.050741335836914
000004026,C=C=CCNCCCCNCC=C=C,C12H20N2,"InChI=1S/C12H20N2/c1-3-5-9-13-11-7-8-12-14-10-6-4-2/h5-6,13-14H,1-2,7-12H2",192.3006,-6.038206342595,0.5523911165150004,6.5905974591100005,0.00011528659939472584
000004027,CCCNC(=O)C1OC1C(=O)NC(C(=O)N1CCCC1C(=O)OC)C(CC)C,C19H31N3O6,"InChI=1S/C19H31N3O6/c1-5-9-20-16(23)14-15(28-14)17(24)21-13(11(3)6-2)18(25)22-10-7-8-12(22)19(26)27-4/h11-15H,5-10H2,1-4H3,(H,20,23)(H,21,24)",397.46594,-6.375627517215,-0.4136130527599997,5.962014464455001,4.121968142213741
000004028,CCCCCCCCC=CCC=CCC=CCCCC(=O)O,C20H34O2,"InChI=1S/C20H34O2/c1-2-3-4-5-6-7-8-9-10-11-12-13-14-15-16-17-18-19-20(21)22/h9-10,12-13,15-16H,2-8,11,14,17-19H2,1H3,(H,21,22)",306.48276,-6.32936816263,0.09796098618000038,6.42732914881,4.719624002583787
000004029,CCCCCCCCC=CCC=CCC=CCCCC(=O)NCCO,C22H39NO2,"InChI=1S/C22H39NO2/c1-2-3-4-5-6-7-8-9-10-11-12-13-14-15-16-17-18-19-22(25)23-20-21-24/h9-10,12-13,15-16,24H,2-8,11,14,17-21H2,1H3,(H,23,25)",349.55056,-6.27494539253,0.23401791142999961,6.50896330396,3.5430155353242525
000004030,COC(=O)Nc1nc2c([nH]1)cc(cc2)C(=O)c1ccccc1,C16H13N3O3,"InChI=1S/C16H13N3O3/c1-22-16(21)19-15-17-12-8-7-11(9-13(12)18-15)14(20)10-5-3-2-4-6-10/h2-9H,1H3,(H2,17,18,19,21)",295.29272,-5.83412095472,-1.3823383605399995,4.451782594180001,4.456111762411373
000004031,COc1ccc(cc1)CC(N(CCCCOC(=O)c1ccc(c(c1)OC)OC)CC)C,C25H35NO5,"InChI=1S/C25H35NO5/c1-6-26(19(2)17-20-9-12-22(28-3)13-10-20)15-7-8-16-31-25(27)21-11-14-23(29-4)24(18-21)30-5/h9-14,18-19H,6-8,15-17H2,1-5H3",429.5491,-5.31710463877,-0.8680431830949997,4.449061455675,2.9109294853118652
000004032,CNC1(C)C2CCC(C1(C)C)C2,C11H21N,"InChI=1S/C11H21N/c1-10(2)8-5-6-9(7-8)11(10,3)12-4/h8-9,12H,5-7H2,1-4H3",167.29114,-5.67629492143,2.000036801175,7.676331722605,0.8747634770902362
000004033,ClCCN(CCCl)C,C5H11Cl2N,"InChI=1S/C5H11Cl2N/c1-8(4-2-6)5-3-7/h2-5H2,1H3",156.05354,-6.50352102695,0.6394675486750003,7.142988575625,2.349294352566958
000004034,Clc1ccc(cc1)C(c1ccccc1)N1CCN(CC1)Cc1cccc(c1)C,C25H27ClN2,"InChI=1S/C25H27ClN2/c1-20-6-5-7-21(18-20)19-27-14-16-28(17-15-27)25(22-8-3-2-4-9-22)23-10-12-24(26)13-11-23/h2-13,18,25H,14-17,19H2,1H3",390.94828,-5.189211129035001,-0.5551122550200001,4.634098874015001,2.0325880902388955
000004037,OC(=O)c1ccccc1Nc1c(Cl)ccc(c1Cl)C,C14H11Cl2NO2,"InChI=1S/C14H11Cl2NO2/c1-8-6-7-10(15)13(12(8)16)17-11-5-3-2-4-9(11)14(18)19/h2-7,17H,1H3,(H,18,19)",296.14864,-5.95929332595,-1.13199361808,4.82729970787,6.196226072493886
000004038,[O-]C(=O)c1ccccc1Nc1c(Cl)ccc(c1Cl)C.[Na+],C14H10Cl2NNaO2,"InChI=1S/C14H11Cl2NO2.Na/c1-8-6-7-10(15)13(12(8)16)17-11-5-3-2-4-9(11)14(18)19;/h2-7,17H,1H3,(H,18,19);/q;+1/p-1",318.13047,-5.548401411695,-1.2163489117350004,4.33205249996,6.253454481231794
000004039,CN(CCOC(=O)COc1ccc(cc1)Cl)C,C12H16ClNO3,"InChI=1S/C12H16ClNO3/c1-14(2)7-8-16-12(15)9-17-11-5-3-10(13)4-6-11/h3-6H,7-9H2,1-2H3",257.71334,-5.94296649492,-0.4081707757500004,5.53479571917,4.286386738981097
000004040,COC(=O)C(CS)N,C4H9NO2S,"InChI=1S/C4H9NO2S/c1-7-4(6)3(5)2-8/h3,8H,2,5H2,1H3",135.18476,-6.285829946550001,-0.08707643215999994,6.198753514390001,2.6094648074015105
000004041,Clc1ccc2c(c1)C(=NCCN2C)c1ccccc1,C16H15ClN2,"InChI=1S/C16H15ClN2/c1-19-10-9-18-16(12-5-3-2-4-6-12)14-11-13(17)7-8-15(14)19/h2-8,11H,9-10H2,1H3",270.7567,-5.526632303655,-1.2027432192100003,4.323889084445,2.6423595208937787
000004042,O=C1CCC2(C(=C1)C(C)CC1C2CCC2(C1CCC2(OC(=O)C)C(=O)C)C)C,C24H34O4,"InChI=1S/C24H34O4/c1-14-12-18-19(22(4)9-6-17(27)13-21(14)22)7-10-23(5)20(18)8-11-24(23,15(2)25)28-16(3)26/h13-14,18-20H,6-12H2,1-5H3",386.52436,-6.29127222356,-1.2435602967849997,5.047711926775,3.059716219712214
000004044,OC(=O)c1ccccc1Nc1cccc(c1C)C,C15H15NO2,"InChI=1S/C15H15NO2/c1-10-6-5-9-13(11(10)2)16-14-8-4-3-7-12(14)15(17)18/h3-9,16H,1-2H3,(H,17,18)",241.2851,-5.61098759731,-0.9578407537600002,4.65314684355,4.602705626044859
000004045,CCN(CCNC(=O)COc1ccc(cc1)OC)CC,C15H24N2O3,"InChI=1S/C15H24N2O3/c1-4-17(5-2)11-10-16-15(18)12-20-14-8-6-13(19-3)7-9-14/h6-9H,4-5,10-12H2,1-3H3,(H,16,18)",280.36266,-5.41506562495,-0.11428781721000014,5.30077780774,2.3694763479429373
000004046,OC(c1cc(nc2c1cccc2C(F)(F)F)C(F)(F)F)C1CCCCN1,C17H16F6N2O,"InChI=1S/C17H16F6N2O/c18-16(19,20)11-5-3-4-9-10(15(26)12-6-1-2-7-24-12)8-13(17(21,22)23)25-14(9)11/h3-5,8,12,15,24,26H,1-2,6-7H2",378.3121592,-6.443655979840001,-2.47079376254,3.9728622173000008,6.757642924974136
000004047,Clc1ccc(cc1S(=O)(=O)N)S(=O)(=O)N(CC1(C)CCCO1)C,C13H19ClN2O5S2,"InChI=1S/C13H19ClN2O5S2/c1-13(6-3-7-21-13)9-16(2)23(19,20)10-4-5-11(14)12(8-10)22(15,17)18/h4-5,8H,3,6-7,9H2,1-2H3,(H2,15,17,18)",382.88336,-6.468146226385,-1.9564985850950007,4.511647641289999,2.4820633028111914
000004048,O=C1CCC2(C(=C1)C(=CC1C2CCC2(C1CCC2(OC(=O)C)C(=O)C)C)C)C,C24H32O4,"InChI=1S/C24H32O4/c1-14-12-18-19(22(4)9-6-17(27)13-21(14)22)7-10-23(5)20(18)8-11-24(23,15(2)25)28-16(3)26/h12-13,18-20H,6-11H2,1-5H3",384.50848,-6.23684945346,-1.3007042053899998,4.93614524807,3.7061616892371276
000004049,CNCC(C(C(C(CO)O)O)O)O,C7H17NO5,"InChI=1S/C7H17NO5/c1-8-2-4(10)6(12)7(13)5(11)3-9/h4-13H,2-3H2,1H3",195.21358,-6.307599054590001,1.341521282965,7.649120337555001,3.484350844422674
000004050,CCCCCC=CCC=CCCCCCCCC(=O)NC(c1ccccc1)C,C26H41NO,"InChI=1S/C26H41NO/c1-3-4-5-6-7-8-9-10-11-12-13-14-15-16-20-23-26(28)27-24(2)25-21-18-17-19-22-25/h7-8,10-11,17-19,21-22,24H,3-6,9,12-16,20,23H2,1-2H3,(H,27,28)",383.60984,-6.141609605785001,-0.09523984767499982,6.046369758110001,2.993088702625099
000004053,ClCCN(c1ccc(cc1)CC(C(=O)O)N)CCCl,C13H18Cl2N2O2,"InChI=1S/C13H18Cl2N2O2/c14-5-7-17(8-6-15)11-3-1-10(2-4-11)9-12(16)13(18)19/h1-4,12H,5-9,16H2,(H,18,19)",305.20022,-5.602824181795,-0.5850447785749999,5.0177794032200005,3.1871213004391596
000004054,CC12CC3CC(C1)(C)CC(C2)(C3)N,C12H21N,"InChI=1S/C12H21N/c1-10-3-9-4-11(2,6-10)8-12(13,5-9)7-10/h9H,3-8,13H2,1-2H3",179.30184,-5.921197386879999,1.83948962938,7.7606870162599995,1.0805322839920148
000004055,O=C1C=C(C)C(=O)c2c1cccc2,C11H8O2,"InChI=1S/C11H8O2/c1-7-6-10(12)8-4-2-3-5-9(8)11(7)13/h2-6H,1H3",172.18002,-7.01509506589,-2.9469930009150005,4.068102064974999,1.0390066688645458
000004056,CC(=CCCC(=CCC1=C(C)C(=O)c2c(C1=O)cccc2)C)CCC=C(CCC=C(C)C)C,C31H40O2,"InChI=1S/C31H40O2/c1-22(2)12-9-13-23(3)14-10-15-24(4)16-11-17-25(5)20-21-27-26(6)30(32)28-18-7-8-19-29(28)31(27)33/h7-8,12,14,16,18-20H,9-11,13,15,17,21H2,1-6H3",444.6481,-5.91575510987,-2.80277266015,3.11298244972,1.715952919027792
000004058,CCOC(=O)C1(CCN(CC1)C)c1ccccc1,C15H21NO2,"InChI=1S/C15H21NO2/c1-3-18-14(17)15(9-11-16(2)12-10-15)13-7-5-4-6-8-13/h4-8H,3,9-12H2,1-2H3",247.33274,-5.526632303655,-0.22857563442000028,5.298056669235,1.7242156811414284
000004059,OCC(COc1ccccc1C)O,C10H14O3,"InChI=1S/C10H14O3/c1-8-4-2-3-5-10(8)13-7-9(12)6-11/h2-5,9,11-12H,6-7H2,1H3",182.21636,-5.97562015698,-0.07347073963499984,5.902149417345,1.945784712839013
000004060,CCC1(NC(=O)N(C1=O)C)c1ccccc1,C12H14N2O2,"InChI=1S/C12H14N2O2/c1-3-12(9-7-5-4-6-8-9)10(15)14(2)11(16)13-12/h4-8H,3H2,1-2H3,(H,13,16)",218.25176,-6.65046250622,-0.5006894849199997,6.149773021300001,1.9662142858879852
000004061,COC1(CCCC1)OC1CCC2C1(C)CCC1C2CCC2C1(C)CC1SC1C2,C25H40O2S,"InChI=1S/C25H40O2S/c1-23-13-10-19-17(7-6-16-14-20-21(28-20)15-24(16,19)2)18(23)8-9-22(23)27-25(26-3)11-4-5-12-25/h16-22H,4-15H2,1-3H3",404.6489,-5.87221689379,0.23401791142999961,6.10623480522,3.0997242132399454
000004062,CN1CCCCC1C(=O)Nc1c(C)cccc1C,C15H22N2O,"InChI=1S/C15H22N2O/c1-11-7-6-8-12(2)14(11)16-15(18)13-9-4-5-10-17(13)3/h6-8,13H,4-5,9-10H2,1-3H3,(H,16,18)",246.34798,-5.839563231730001,-0.021769108039999985,5.817794123690001,3.2331500687391546
000004063,OCC(=O)C1(O)C(C)CC2C1(C)CC(=O)C1C2CCC2=CC(=O)C=CC12C,C22H28O5,"InChI=1S/C22H28O5/c1-12-8-16-15-5-4-13-9-14(24)6-7-20(13,2)19(15)17(25)10-21(16,3)22(12,27)18(26)11-23/h6-7,9,12,15-16,19,23,27H,4-5,8,10-11H2,1-3H3",372.45472,-6.185147821865,-1.4748570697099996,4.710290752155,6.786481967648923
000004064,CCCC(COC(=O)N)(COC(=O)N)C,C9H18N2O4,"InChI=1S/C9H18N2O4/c1-3-4-9(2,5-14-7(10)12)6-15-8(11)13/h3-6H2,1-2H3,(H2,10,12)(H2,11,13)",218.25022,-7.268160946855001,1.2870985128649997,8.55525945972,1.1519348951429504
000004065,CCCNC(COC(=O)c1ccccc1)(C)C,C14H21NO2,"InChI=1S/C14H21NO2/c1-4-10-15-14(2,3)11-17-13(16)12-8-6-5-7-9-12/h5-9,15H,4,10-11H2,1-3H3",235.32204,-5.839563231730001,-1.2517237123000005,4.58783951943,2.56957718647193
000004066,c1ccc2c(c1)N(CC1CN3CCC1CC3)c1c(S2)cccc1,C20H22N2S,"InChI=1S/C20H22N2S/c1-3-7-19-17(5-1)22(18-6-2-4-8-20(18)23-19)14-16-13-21-11-9-15(16)10-12-21/h1-8,15-16H,9-14H2",322.46708,-4.7647135222550006,-0.47892037687999967,4.285793145375001,0.757380113159832
000004070,SCCN=C(N)N,C3H9N3S,"InChI=1S/C3H9N3S/c4-3(5)6-1-2-7/h7H,1-2H2,(H4,4,5,6)",119.18866,-5.866774616780001,0.8571586290750002,6.723933245855001,5.091433579035083
000004074,CC(C(C1N=C(C(C1C)SC1CNC(C1)C(=O)N(C)C)C(=O)O)C(=O)O)O,C17H27N3O6S,"InChI=1S/C17H27N3O6S/c1-7-12(11(8(2)21)16(23)24)19-13(17(25)26)14(7)27-9-5-10(18-6-9)15(22)20(3)4/h7-12,14,18,21H,5-6H2,1-4H3,(H,23,24)(H,25,26)",401.47778,-6.10623480522,-1.385059499045,4.721175306175,8.628357591795382
000004075,Nc1ccc(c(c1)C(=O)O)O,C7H7NO3,"InChI=1S/C7H7NO3/c8-4-1-2-6(9)5(3-4)7(10)11/h1-3,9H,8H2,(H,10,11)",153.13538,-5.5728916582400005,-1.1700895571499998,4.402802101090001,6.627053467577351
000004076,NCCc1cc(OC)c(c(c1)OC)OC,C11H17NO3,"InChI=1S/C11H17NO3/c1-13-9-6-8(4-5-12)7-10(14-2)11(9)15-3/h6-7H,4-5,12H2,1-3H3",211.25758,-5.4504404255150005,0.4272187452849998,5.8776591708,1.2447455099742275