mol_id,SMILES,formula,inchi,mass,HOMO(eV),LUMO(eV),GAP(eV),dipole_moment
000005097,CCC(Nc1nc(NCc2ccccc2)c2c(n1)n(cn2)C(C)C)CO,C19H26N6O,"InChI=1S/C19H26N6O/c1-4-15(11-26)22-19-23-17(20-10-14-8-6-5-7-9-14)16-18(24-19)25(12-21-16)13(2)3/h5-9,12-13,15,26H,4,10-11H2,1-3H3,(H2,20,22,23,24)",354.44934,-5.11029811239,-0.2966040970449999,4.813694015345,1.3634671003837973
000005099,O=C(OC(C(=O)O)Cc1ccc(c(c1)O)O)C=Cc1ccc(c(c1)O)O,C18H16O8,"InChI=1S/C18H16O8/c19-12-4-1-10(7-14(12)21)3-6-17(23)26-16(18(24)25)9-11-2-5-13(20)15(22)8-11/h1-8,16,19-22H,9H2,(H,24,25)",360.31484,-5.7388811070450005,-1.9211237845299998,3.8177573225150008,6.754662998642716
000005100,O=C1C=CC(=C(c2ccc(cc2)O)c2ccc(cc2)O)C=C1,C19H14O3,"InChI=1S/C19H14O3/c20-16-7-1-13(2-8-16)19(14-3-9-17(21)10-4-14)15-5-11-18(22)12-6-15/h1-12,20-21H",290.31266,-5.684458336945,-2.1306514494149997,3.5538068875300004,7.748283540588651
000005101,COc1cc2c(cc1OC)OCC1C2(O)C(=O)C2=C(O1)C1CC(OC1C=C2)C(=C)C,C23H24O7,"InChI=1S/C23H24O7/c1-11(2)16-7-13-15(29-16)6-5-12-21(13)30-20-10-28-17-9-19(27-4)18(26-3)8-14(17)23(20,25)22(12)24/h5-6,8-9,13,15-16,20,25H,1,7,10H2,2-4H3",412.43246,-5.37152740887,-1.5102318702749997,3.861295538595,3.963555840579012
000005102,COc1cc2c(cc1OC)OCC1C2C(=O)c2c(O1)c1CC(Oc1cc2)C(=C)C,C23H22O6,"InChI=1S/C23H22O6/c1-11(2)16-8-14-15(28-16)6-5-12-22(24)21-13-7-18(25-3)19(26-4)9-17(13)27-10-20(21)29-23(12)14/h5-7,9,16,20-21H,1,8,10H2,2-4H3",394.41718,-4.87628020096,-1.2898196513700002,3.58646054959,4.246899834084741
000005105,O=C(COC(=O)C)NCCCOc1cccc(c1)CN1CCCCC1,C19H28N2O4,"InChI=1S/C19H28N2O4/c1-16(22)25-15-19(23)20-9-6-12-24-18-8-5-7-17(13-18)14-21-10-3-2-4-11-21/h5,7-8,13H,2-4,6,9-12,14-15H2,1H3,(H,20,23)",348.43662,-5.548401411695,0.06258618561500029,5.61098759731,2.964468534018703
000005107,NCc1cccc(c1)c1ccc(cc1)C(=O)NC(C(C(=O)OC)Cc1cccc(c1)C(=N)N)C,C27H30N4O3,"InChI=1S/C27H30N4O3/c1-17(24(27(33)34-2)15-18-5-3-8-23(13-18)25(29)30)31-26(32)21-11-9-20(10-12-21)22-7-4-6-19(14-22)16-28/h3-14,17,24H,15-16,28H2,1-2H3,(H3,29,30)(H,31,32)",458.5521,-6.1361673287750005,-0.9986578313350005,5.13750949744,4.50272400413361
000005109,O=C1N(CCC1NS(=O)(=O)c1sc2c(c1)nccc2)Cc1[nH]c2c(c1)ccnc2,C19H17N5O3S2,"InChI=1S/C19H17N5O3S2/c25-19-14(23-29(26,27)18-9-15-17(28-18)2-1-5-21-15)4-7-24(19)11-13-8-12-3-6-20-10-16(12)22-13/h1-3,5-6,8-10,14,22-23H,4,7,11H2",427.49998,-5.866774616780001,-2.13881486493,3.7279597518500007,9.995733845985196
000005110,O=C1N(CCC1NS(=O)(=O)c1sc2c(c1)nccc2)Cc1ccc2c(c1)c(N)ncc2,C21H19N5O3S2,"InChI=1S/C21H19N5O3S2/c22-20-15-10-13(3-4-14(15)5-8-24-20)12-26-9-6-16(21(26)27)25-31(28,29)19-11-17-18(30-19)2-1-7-23-17/h1-5,7-8,10-11,16,25H,6,9,12H2,(H2,22,24)",453.53726,-5.5728916582400005,-2.038132740245,3.5347589179950005,7.335184505067613
000005111,ONC(=O)CC1(CCOCC1)S(=O)(=O)c1ccc(cc1)Oc1ccc(cc1)Cl,C19H20ClNO6S,"InChI=1S/C19H20ClNO6S/c20-14-1-3-15(4-2-14)27-16-5-7-17(8-6-16)28(24,25)19(13-18(22)21-23)9-11-26-12-10-19/h1-8,23H,9-13H2,(H,21,22)",425.8832,-6.587876320605,-1.32791559044,5.259960730165,4.1736855984894214
000005115,NC(c1ccc(cc1)C(=O)O)C(=O)O,C9H9NO4,"InChI=1S/C9H9NO4/c10-7(9(13)14)5-1-3-6(4-2-5)8(11)12/h1-4,7H,10H2,(H,11,12)(H,13,14)",195.17206,-6.976999126820001,-1.3959440530649996,5.581055073755001,2.5869733228114278
000005116,CCN1CCCC1CNC(=O)c1c(O)c(Cl)cc(c1O)Cl,C14H18Cl2N2O3,"InChI=1S/C14H18Cl2N2O3/c1-2-18-5-3-4-8(18)7-17-14(21)11-12(19)9(15)6-10(16)13(11)20/h6,8,19-20H,2-5,7H2,1H3,(H,17,21)",333.21032,-5.62731442834,-1.4013863300749998,4.225928098265,5.095998203455728
000005117,CCCN1CCOC2C1COc1c2cc(cc1)O,C14H19NO3,"InChI=1S/C14H19NO3/c1-2-5-15-6-7-17-14-11-8-10(16)3-4-13(11)18-9-12(14)15/h3-4,8,12,14,16H,2,5-7,9H2,1H3",249.30556,-5.26268186867,-0.19864311086500042,5.064038757804999,2.531322302962031
000005118,CCN1CCCC1CNC(=O)c1c(O)c(Cl)cc(c1OC)Cl,C15H20Cl2N2O3,"InChI=1S/C15H20Cl2N2O3/c1-3-19-6-4-5-9(19)8-18-15(21)12-13(20)10(16)7-11(17)14(12)22-2/h7,9,20H,3-6,8H2,1-2H3,(H,18,21)",347.2369,-5.619151012825,-1.3660115295100006,4.253139483315,5.80086725287185
000005119,CCCN1CCCC(C1)c1cccc(c1)C#N,C15H20N2,"InChI=1S/C15H20N2/c1-2-8-17-9-4-7-15(12-17)14-6-3-5-13(10-14)11-16/h3,5-6,10,15H,2,4,7-9,12H2,1H3",228.3327,-5.722554276015,-1.319752174925,4.40280210109,4.573309013919243
000005122,CCCN(C1CCc2c(C1)c(O)ccc2F)CCC,C16H24FNO,"InChI=1S/C16H24FNO/c1-3-9-18(10-4-2)12-5-6-13-14(11-12)16(19)8-7-15(13)17/h7-8,12,19H,3-6,9-11H2,1-2H3",265.3662632,-5.515747749635,-0.04353821607999997,5.472209533555,1.4248786368677158
000005123,OC(=O)C(Cn1ccc(=O)[nH]c1=O)N,C7H9N3O4,"InChI=1S/C7H9N3O4/c8-4(6(12)13)3-10-2-1-5(11)9-7(10)14/h1-2,4H,3,8H2,(H,12,13)(H,9,11,14)",199.16406,-6.83549992456,-1.537443255325,5.298056669235,3.427845227223802
000005124,O=NSC(C(C(=O)NC(C(SN=O)(C)C)C(=O)O)NC(=O)OC)(C)C,C12H20N4O7S2,"InChI=1S/C12H20N4O7S2/c1-11(2,24-15-21)6(14-10(20)23-5)8(17)13-7(9(18)19)12(3,4)25-16-22/h6-7H,1-5H3,(H,13,17)(H,14,20)(H,18,19)",396.4398,-5.564728242725,-2.4735149010449997,3.09121334168,4.960202694227424
000005125,CCCCSP(=O)(SCCCC)SCCCC,C12H27OPS3,"InChI=1S/C12H27OPS3/c1-4-7-10-15-14(13,16-11-8-5-2)17-12-9-6-3/h4-12H2,1-3H3",314.510941,-6.397396625255,-0.7591976428949998,5.6381989823600005,2.378792971476501
000005126,CC(CO)N,C3H9NO,"InChI=1S/C3H9NO/c1-3(4)2-5/h3,5H,2,4H2,1H3",75.10966,-6.1579364368150005,1.5700969173850003,7.728033354200001,1.2226332872599206
000005127,OC(=O)C(CS(=N)(=N)C)Cc1ccccc1,C11H16N2O2S,"InChI=1S/C11H16N2O2S/c1-16(12,13)8-10(11(14)15)7-9-5-3-2-4-6-9/h2-6,10,12-13H,7-8H2,1H3,(H,14,15)",240.32194,-6.0953502512,-0.37007483667999974,5.72527541452,2.974020647724726
000005129,OCC1OC(C(C1O)O)n1cnc2c1ncnc2SCc1ccc(cc1)[N+](=O)[O-],C17H17N5O6S,"InChI=1S/C17H17N5O6S/c23-5-11-13(24)14(25)17(28-11)21-8-20-12-15(21)18-7-19-16(12)29-6-9-1-3-10(4-2-9)22(26)27/h1-4,7-8,11,13-14,17,23-25H,5-6H2",419.41178,-6.413723456285,-2.402765299915,4.01095815637,5.866827625927407
000005131,[N-]=[N+]=Nc1ccc(cc1)C(=O)CSCC(C(=O)NCC(=O)O)NC(=O)CCC(C(=O)O)N,C18H22N6O7S,"InChI=1S/C18H22N6O7S/c19-12(18(30)31)5-6-15(26)22-13(17(29)21-7-16(27)28)8-32-9-14(25)10-1-3-11(4-2-10)23-24-20/h1-4,12-13H,5-9,19H2,(H,21,29)(H,22,26)(H,27,28)(H,30,31)",466.46828,-6.416444594790001,-2.14969941895,4.266745175840001,3.6528275997218924
000005133,O=C(NC(C(=O)NCC(=O)O)CSCc1ccc(cc1)[N+](=O)[O-])CCC(C(=O)O)N,C17H22N4O8S,"InChI=1S/C17H22N4O8S/c18-12(17(26)27)5-6-14(22)20-13(16(25)19-7-15(23)24)9-30-8-10-1-3-11(4-2-10)21(28)29/h1-4,12-13H,5-9,18H2,(H,19,25)(H,20,22)(H,23,24)(H,26,27)",442.44358,-6.506242165455,-2.3429002528049994,4.163341912650001,8.480770112094596
000005136,C[S+](CC1OC(C(C1O)O)n1cnc2c1ncnc2N)CCC(C(=O)[O-])N,C15H22N6O5S,"InChI=1S/C15H22N6O5S/c1-27(3-2-7(16)15(24)25)4-8-10(22)11(23)14(26-8)21-6-20-9-12(17)18-5-19-13(9)21/h5-8,10-11,14,22-23H,2-4,16H2,1H3,(H2-,17,18,19,24,25)",398.43738,-5.287172115215,-0.8816488756199998,4.405523239595,6.527099397511731
000005137,O=C(NC(C(=O)NCC(=O)O)CSCc1ccccc1)CCC(C(=O)O)N,C17H23N3O6S,"InChI=1S/C17H23N3O6S/c18-12(17(25)26)6-7-14(21)20-13(16(24)19-8-15(22)23)10-27-9-11-4-2-1-3-5-11/h1-5,12-13H,6-10,18H2,(H,19,24)(H,20,21)(H,22,23)(H,25,26)",397.44602,-6.19331123738,-1.1129456485449998,5.080365588835,5.815889364681639
000005141,CCCCCCSCC(C(=O)NCC(=O)O)NC(=O)CCC(C(=O)O)N,C16H29N3O6S,"InChI=1S/C16H29N3O6S/c1-2-3-4-5-8-26-10-12(15(23)18-9-14(21)22)19-13(20)7-6-11(17)16(24)25/h11-12H,2-10,17H2,1H3,(H,18,23)(H,19,20)(H,21,22)(H,24,25)",391.48296,-6.61236656715,-0.8190626900049995,5.793303877145,6.444530849289341
000005143,O=C1NS(=O)(=O)c2c1cccc2,C7H5NO3S,"InChI=1S/C7H5NO3S/c9-7-5-3-1-2-4-6(5)12(10,11)8-7/h1-4H,(H,8,9)",183.1845,-7.736196769715,-2.10616120287,5.630035566845,4.192465977700475
000005144,C=CCc1ccc2c(c1)OCO2,C10H10O2,"InChI=1S/C10H10O2/c1-2-3-8-4-5-9-10(6-8)12-7-11-9/h2,4-6H,1,3,7H2",162.1852,-5.43139245598,0.005442277010000218,5.43683473299,0.5116498180152125
000005145,OCC1OC(Oc2ccccc2CO)C(C(C1O)O)O,C13H18O7,"InChI=1S/C13H18O7/c14-5-7-3-1-2-4-8(7)19-13-12(18)11(17)10(16)9(6-15)20-13/h1-4,9-18H,5-6H2",286.27782,-6.266781977015,-0.14694147926999968,6.119840497745001,2.9296505178409933
000005146,OCc1ccccc1O,C7H8O2,"InChI=1S/C7H8O2/c8-5-6-3-1-2-4-7(6)9/h1-4,8-9H,5H2",124.13722,-5.962014464455,-0.1523837562799999,5.809630708175,2.8742218831640325
000005147,NC(=O)c1ccccc1O,C7H7NO2,"InChI=1S/C7H7NO2/c8-7(10)5-3-1-2-4-6(5)9/h1-4,9H,(H2,8,10)",137.13598,-6.370185240205,-0.8979757066499996,5.4722095335550005,5.01764738148557
000005149,CCC=CC=CC(=O)NC=CCC1CC(O)C(C)CC=CCc2c(C(=O)O1)c(O)ccc2,C26H33NO5,"InChI=1S/C26H33NO5/c1-3-4-5-6-16-24(30)27-17-10-14-21-18-23(29)19(2)11-7-8-12-20-13-9-15-22(28)25(20)26(31)32-21/h4-10,13,15-17,19,21,23,28-29H,3,11-12,14,18H2,1-2H3,(H,27,30)",439.54392,-5.54568027319,-1.548327809345,3.9973524638450004,4.237729802798428
000005153,OCC1OC(C(C1O)O)n1cc(c2c1ncnc2N)C(=O)N,C12H15N5O5,"InChI=1S/C12H15N5O5/c13-9-6-4(10(14)21)1-17(11(6)16-3-15-9)12-8(20)7(19)5(2-18)22-12/h1,3,5,7-8,12,18-20H,2H2,(H2,14,21)(H2,13,15,16)",309.278,-5.619151012825,-1.0231480778800002,4.596002934945,4.813084249780591
000005155,Cc1cn(C2OC(C=C2)CO)c(=O)[nH]c1=O,C10H12N2O4,"InChI=1S/C10H12N2O4/c1-6-4-12(10(15)11-9(6)14)8-3-2-7(5-13)16-8/h2-4,7-8,13H,5H2,1H3,(H,11,14,15)",224.21328,-6.3130413316,-1.1211090640599997,5.19193226754,5.319162994270245
000005156,CC1C(=O)OC2C1CCC1(C2=C(C)C(=O)C=C1)C,C15H18O3,"InChI=1S/C15H18O3/c1-8-10-4-6-15(3)7-5-11(16)9(2)12(15)13(10)18-14(8)17/h5,7-8,10,13H,4,6H2,1-3H3",246.30162,-5.54023799618,-1.9728254161249996,3.5674125800550005,5.932904765204309
000005160,COc1cccc(c1)CCc1ccccc1OCC(OC(=O)CCC(=O)O)CN(C)C,C24H31NO6,"InChI=1S/C24H31NO6/c1-25(2)16-21(31-24(28)14-13-23(26)27)17-30-22-10-5-4-8-19(22)12-11-18-7-6-9-20(15-18)29-3/h4-10,15,21H,11-14,16-17H2,1-3H3,(H,26,27)",429.50604,-5.7143908605,-0.6666789337250005,5.0477119267749995,7.551492773962178
000005161,Oc1ccccc1C(=O)Oc1ccccc1C(=O)O,C14H10O5,"InChI=1S/C14H10O5/c15-11-7-3-1-5-9(11)14(18)19-12-8-4-2-6-10(12)13(16)17/h1-8,15H,(H,16,17)",258.2262,-6.5905974591100005,-1.8748644299450001,4.715733029165,4.0871308413598655
000005162,CCc1[nH]c(nc1c1ccncc1)c1ccc(cc1)OC,C17H17N3O,"InChI=1S/C17H17N3O/c1-3-15-16(12-8-10-18-11-9-12)20-17(19-15)13-4-6-14(21-2)7-5-13/h4-11H,3H2,1-2H3,(H,19,20)",279.33638,-5.333431469800001,-0.7238228423299997,4.609608627470001,7.513389975741509
000005163,O=C(N1CCc2c1cc1ccn(c1c2)C)Nc1cccnc1,C17H16N4O,"InChI=1S/C17H16N4O/c1-20-7-4-12-10-16-13(9-15(12)20)5-8-21(16)17(22)19-14-3-2-6-18-11-14/h2-4,6-7,9-11H,5,8H2,1H3,(H,19,22)",292.33514,-5.074923311825,-0.4489878533249998,4.6259354585,7.488316836834563
000005164,Nc1nccc(n1)c1n(cnc1c1ccc(cc1)F)C1CCNCC1,C18H19FN6,"InChI=1S/C18H19FN6/c19-13-3-1-12(2-4-13)16-17(15-7-10-22-18(20)24-15)25(11-23-16)14-5-8-21-9-6-14/h1-4,7,10-11,14,21H,5-6,8-9H2,(H2,20,22,24)",338.3820632,-5.4504404255150005,-1.3442424214699997,4.106198004045001,5.3988639826542215
000005166,COc1nccc(n1)c1c(ncn1C1CCC(CC1)O)c1ccc(cc1)F,C20H21FN4O2,"InChI=1S/C20H21FN4O2/c1-27-20-22-11-10-17(24-20)19-18(13-2-4-14(21)5-3-13)23-12-25(19)15-6-8-16(26)9-7-15/h2-5,10-12,15-16,26H,6-9H2,1H3",368.4047432,-5.71983313751,-1.6217985489800002,4.09803458853,2.84734199744481
000005171,Fc1ccc(cc1)c1ncn(c1c1ccncc1)CC1CC1,C18H16FN3,"InChI=1S/C18H16FN3/c19-16-5-3-14(4-6-16)17-18(15-7-9-20-10-8-15)22(12-21-17)11-13-1-2-13/h3-10,12-13H,1-2,11H2",293.3381432,-5.48581522608,-1.1782529726649997,4.307562253415,4.897552657213703
000005172,Fc1ccc(cc1)c1ncn(c1c1ccnc(n1)N)CC1CC1,C17H16FN5,"InChI=1S/C17H16FN5/c18-13-5-3-12(4-6-13)15-16(14-7-8-20-17(19)22-14)23(10-21-15)9-11-1-2-11/h3-8,10-11H,1-2,9H2,(H2,19,20,22)",309.3408432,-5.504863195615,-1.363290391005,4.14157280461,4.361022804013526
000005173,ONC(=O)CCCCCCC(=O)NO,C8H16N2O4,"InChI=1S/C8H16N2O4/c11-7(9-13)5-3-1-2-4-6-8(12)10-14/h13-14H,1-6H2,(H,9,11)(H,10,12)",204.22364,-6.4763096418999995,-0.01904796953500032,6.457261672364999,1.4338812938709398
000005174,Cc1oc(c(n1)c1ccccc1)c1ccncc1,C15H12N2O,"InChI=1S/C15H12N2O/c1-11-17-14(12-5-3-2-4-6-12)15(18-11)13-7-9-16-10-8-13/h2-10H,1H3",236.26858,-5.87221689379,-1.5456066708399998,4.32661022295,2.0416344690940638
000005175,CCCCCCCNS(=O)(=O)c1cccc2c1cccc2Cl,C17H22ClNO2S,"InChI=1S/C17H22ClNO2S/c1-2-3-4-5-6-13-19-22(20,21)17-12-8-9-14-15(17)10-7-11-16(14)18/h7-12,19H,2-6,13H2,1H3",339.88008,-6.3021567775800005,-1.8667010144299994,4.435455763150001,3.559593533574444
000005184,OCC(c1ccccc1)C(=O)OC1CC2N(C(C1)C1C2O1)C,C17H21NO4,"InChI=1S/C17H21NO4/c1-18-13-7-11(8-14(18)16-15(13)22-16)21-17(20)12(9-19)10-5-3-2-4-6-10/h2-6,11-16,19H,7-9H2,1H3",303.35294,-6.010994957545001,-0.3292577591050003,5.6817371984400005,3.5901009625651197
000005186,ONC(=O)CCCCCn1c(=O)c2cccc3c2c(c1=O)ccc3,C18H18N2O4,"InChI=1S/C18H18N2O4/c21-15(19-24)10-2-1-3-11-20-17(22)13-8-4-6-12-7-5-9-14(16(12)13)18(20)23/h4-9,24H,1-3,10-11H2,(H,19,21)",326.34652,-6.255897422995,-2.3891596073900003,3.8667378156049996,4.341206864187654
000005188,OC(CN1CCN(CC1)c1ccccn1)COc1ccc(cc1)C1CCCCC1,C24H33N3O2,"InChI=1S/C24H33N3O2/c28-22(18-26-14-16-27(17-15-26)24-8-4-5-13-25-24)19-29-23-11-9-21(10-12-23)20-6-2-1-3-7-20/h4-5,8-13,20,22,28H,1-3,6-7,14-19H2",395.53772,-5.2790086997,-0.4707569613649998,4.8082517383350005,1.4233953596348417
000005189,CCOC(=O)c1csc(n1)N1CCN(CC1)C1=Nc2c(SC1)cccc2,C18H20N4O2S2,"InChI=1S/C18H20N4O2S2/c1-2-24-17(23)14-11-26-18(20-14)22-9-7-21(8-10-22)16-12-25-15-6-4-3-5-13(15)19-16/h3-6,11H,2,7-10,12H2,1H3",388.507,-5.515747749635,-0.9360716457200002,4.579676103914999,3.272662109387402
000005190,N#Cc1[nH]c2c(c1)c(OCC(CN1CCN(CC1)C(c1ccccc1)c1ccccc1)O)ccc2,C29H30N4O2,"InChI=1S/C29H30N4O2/c30-19-24-18-26-27(31-24)12-7-13-28(26)35-21-25(34)20-32-14-16-33(17-15-32)29(22-8-3-1-4-9-22)23-10-5-2-6-11-23/h1-13,18,25,29,31,34H,14-17,20-21H2",466.5741,-5.461324979535,-1.1809741111700003,4.280350868365,2.549140741683754
000005191,CCN(CCOC(=O)c1cc(Cl)c(cc1OC)N)CC,C14H21ClN2O3,"InChI=1S/C14H21ClN2O3/c1-4-17(5-2)6-7-20-14(18)10-8-11(15)12(16)9-13(10)19-3/h8-9H,4-7,16H2,1-3H3",300.78114,-5.6164298743200005,-0.6966114572800004,4.91981841704,1.3898970983554864
000005192,OC(=O)CCCCCCCCC(=O)O,C10H18O4,"InChI=1S/C10H18O4/c11-9(12)7-5-3-1-2-4-6-8-10(13)14/h1-8H2,(H,11,12)(H,13,14)",202.24752,-7.51578455081,0.14694147926999968,7.66272603008,2.3627731869413533
000005193,CCCC(C1(CC=C)C(=O)NC(=O)NC1=O)C,C12H18N2O3,"InChI=1S/C12H18N2O3/c1-4-6-8(3)12(7-5-2)9(15)13-11(17)14-10(12)16/h5,8H,2,4,6-7H2,1,3H3,(H2,13,14,15,16,17)",238.28292,-7.230065007785,-1.1510415876150004,6.0790234201699995,1.155031447977933
000005195,CC(N(CC#C)C)Cc1ccccc1,C13H17N,"InChI=1S/C13H17N/c1-4-10-14(3)12(2)11-13-8-6-5-7-9-13/h1,5-9,12H,10-11H2,2-3H3",187.28078,-5.820515262195,0.07347073963499984,5.89398600183,0.9735941213139078
000005196,NNC(=O)N,CH5N3O,"InChI=1S/CH5N3O/c2-1(5)4-3/h3H2,(H3,2,4,5)",75.0699,-6.683116168280001,1.17553183416,7.858648002440001,2.7477184507196144
000005198,ClCCN(C(=O)NC1CCC(CC1)C)N=O,C10H18ClN3O2,"InChI=1S/C10H18ClN3O2/c1-8-2-4-9(5-3-8)12-10(15)14(13-16)7-6-11/h8-9H,2-7H2,1H3,(H,12,15)",247.72182,-6.48175191891,-1.5320009783150006,4.949750940594999,1.5758178318247957
000005200,CC(C(=O)C1=Nc2c(NC1)[nH]c(nc2=O)N)O,C9H11N5O3,"InChI=1S/C9H11N5O3/c1-3(15)6(16)4-2-11-7-5(12-4)8(17)14-9(10)13-7/h3,15H,2H2,1H3,(H4,10,11,13,14,17)",237.21534,-5.727996553025,-2.13881486493,3.589181688095,10.381634576065178
000005202,NCCc1c[nH]c2c1cc(O)cc2,C10H12N2O,"InChI=1S/C10H12N2O/c11-4-3-7-6-12-10-2-1-8(13)5-9(7)10/h1-2,5-6,12-13H,3-4,11H2",176.21508,-5.172884298005,-0.14149920226000035,5.031385095745,0.882240361793202
000005203,CNC1CCC(c2c1cccc2)c1ccc(c(c1)Cl)Cl,C17H17Cl2N,"InChI=1S/C17H17Cl2N/c1-20-17-9-7-12(13-4-2-3-5-14(13)17)11-6-8-15(18)16(19)10-11/h2-6,8,10,12,17,20H,7,9H2,1H3",306.22958,-5.994668126515,-0.62041957914,5.374248547375,3.2050096332561937
000005204,C1Oc2c(O1)cc(cc2)C1OCC2C1COC2c1ccc2c(c1)OCO2,C20H18O6,"InChI=1S/C20H18O6/c1-3-15-17(25-9-23-15)5-11(1)19-13-7-22-20(14(13)8-21-19)12-2-4-16-18(6-12)26-10-24-16/h1-6,13-14,19-20H,7-10H2",354.35332,-5.48581522608,-0.07347073963499984,5.412344486445,1.4775007658874495
000005205,CN1CCC2=C(C1)c1ccccc1Cc1c2cccc1,C19H19N,"InChI=1S/C19H19N/c1-20-11-10-18-16-8-4-2-6-14(16)12-15-7-3-5-9-17(15)19(18)13-20/h2-9H,10-13H2,1H3",261.36086,-5.69262175246,-0.5959293325950004,5.096692419865,0.7906868569977624
000005206,FCOC(C(F)(F)F)C(F)(F)F,C4H3F7O,"InChI=1S/C4H3F7O/c5-1-12-2(3(6,7)8)4(9,10)11/h2H,1H2",200.0548424,-8.85458469527,0.9850521388099995,9.83963683408,2.6270090280059946
000005207,NCCCNCCCNC(=O)C(CCCN=C(N)N)N,C12H29N7O,"InChI=1S/C12H29N7O/c13-5-2-6-17-7-3-9-18-11(20)10(14)4-1-8-19-12(15)16/h10,17H,1-9,13-14H2,(H,18,20)(H4,15,16,19)",287.40496,-5.624593289835,0.7700821969150002,6.394675486750001,4.480285111826925
000005208,CC(=CCC(C1=CC(=O)c2c(C1=O)c(O)ccc2O)O)C,C16H16O5,"InChI=1S/C16H16O5/c1-8(2)3-4-10(17)9-7-13(20)14-11(18)5-6-12(19)15(14)16(9)21/h3,5-7,10,17-19H,4H2,1-2H3",288.29524,-5.907591694355,-2.8762433997850003,3.03134829457,3.2676304510689396
000005209,CC(=CCc1c(O)c(C)cc2c1[nH]c1c2cccc1)C,C18H19NO,"InChI=1S/C18H19NO/c1-11(2)8-9-14-17-15(10-12(3)18(14)20)13-6-4-5-7-16(13)19-17/h4-8,10,19-20H,9H2,1-3H3",265.34956,-5.1157403894,-0.39728622172999994,4.71845416767,1.3786224833724423
000005210,CC(CC(C1(CCC1)c1ccc(cc1)Cl)N(C)C)C,C17H26ClN,"InChI=1S/C17H26ClN/c1-13(2)12-16(19(3)4)17(10-5-11-17)14-6-8-15(18)9-7-14/h6-9,13,16H,5,10-12H2,1-4H3",279.84804,-5.8831014478100006,-0.15510489478499956,5.727996553025001,3.069882233464502
000005211,Cc1cc(O)c2c(c1)OC1(C3C2OCCC23CCCC(C2CC1)(C)C)C,C23H32O3,"InChI=1S/C23H32O3/c1-14-12-15(24)18-16(13-14)26-22(4)9-6-17-21(2,3)7-5-8-23(17)10-11-25-19(18)20(22)23/h12-13,17,19-20,24H,5-11H2,1-4H3",356.49838,-5.28989325372,0.2068065263800003,5.4966997801,4.0766664899656675
000005212,CCCc1nn(c2c1[nH]c(nc2=O)c1cc(ccc1OCC)S(=O)(=O)N1CCN(CC1)C)C,C22H30N6O4S,"InChI=1S/C22H30N6O4S/c1-5-7-17-19-20(27(4)25-17)22(29)24-21(23-19)16-14-15(8-9-18(16)32-6-2)33(30,31)28-12-10-26(3)11-13-28/h8-9,14H,5-7,10-13H2,1-4H3,(H,23,24,29)",474.5764,-5.4286713174750005,-1.814999382835,3.6136719346400006,8.837137765434745
000005213,OCC1Oc2ccc(cc2OC1c1ccc(c(c1)OC)O)C1Oc2cc(O)cc(c2C(=O)C1O)O,C25H22O10,"InChI=1S/C25H22O10/c1-32-17-6-11(2-4-14(17)28)24-20(10-26)33-16-5-3-12(7-18(16)34-24)25-23(31)22(30)21-15(29)8-13(27)9-19(21)35-25/h2-9,20,23-29,31H,10H2,1H3",482.43618,-5.62731442834,-1.5918660254250003,4.035448402915,3.371610609060453
000005215,Nc1ccc(cc1)S(=O)(=O)Nc1ncccn1,C10H10N4O2S,"InChI=1S/C10H10N4O2S/c11-8-2-4-9(5-3-8)17(15,16)14-10-12-6-1-7-13-10/h1-7H,11H2,(H,12,13,14)",250.277,-5.997389265020001,-1.0503594629300004,4.94702980209,7.775244118875561
000005216,CCNc1nc(NCC)nc(n1)Cl,C7H12ClN5,"InChI=1S/C7H12ClN5/c1-3-9-6-11-5(8)12-7(13-6)10-4-2/h3-4H2,1-2H3,(H2,9,10,11,12,13)",201.65668,-6.315762470105001,-0.5986504711,5.7171119990050006,3.9943905909949518
000005217,O=C(C(Oc1ccc(cc1)Cl)(C)C)OCCCOC(=O)C(Oc1ccc(cc1)Cl)(C)C,C23H26Cl2O6,"InChI=1S/C23H26Cl2O6/c1-22(2,30-18-10-6-16(24)7-11-18)20(26)28-14-5-15-29-21(27)23(3,4)31-19-12-8-17(25)9-13-19/h6-13H,5,14-15H2,1-4H3",469.35494,-5.7905827386399995,-0.6748423492400004,5.115740389399999,5.09342192792272
000005218,CCC(C(=O)OC1CC(C)C=C2C1C(CCC(CC(CC(=O)O)O)O)C(C=C2)C)(C)C,C25H40O6,"InChI=1S/C25H40O6/c1-6-25(4,5)24(30)31-21-12-15(2)11-17-8-7-16(3)20(23(17)21)10-9-18(26)13-19(27)14-22(28)29/h7-8,11,15-16,18-21,23,26-27H,6,9-10,12-14H2,1-5H3,(H,28,29)",436.5815,-4.93070297106,-1.0585228784450003,3.8721800926149994,3.612927889134933
000005219,N=c1o[n-][n+](c1)N1CCOCC1,C6H10N4O2,"InChI=1S/C6H10N4O2/c7-6-5-10(8-12-6)9-1-3-11-4-2-9/h5,7H,1-4H2",170.1692,-5.19193226754,-1.352405836985,3.8395264305550003,5.4766021500825675
000005220,NC(CC1(C)OC(C(C1O)O)(C)n1cnc2c1ncnc2N)CCC(C(=O)O)N,C17H27N7O5,"InChI=1S/C17H27N7O5/c1-16(5-8(18)3-4-9(19)15(27)28)11(25)12(26)17(2,29-16)24-7-23-10-13(20)21-6-22-14(10)24/h6-9,11-12,25-26H,3-5,18-19H2,1-2H3,(H,27,28)(H2,20,21,22)",409.44018,-5.90487055585,-0.9714464462850003,4.933424109564999,6.218177988990827