mol_id,SMILES,formula,inchi,mass,HOMO(eV),LUMO(eV),GAP(eV),dipole_moment
000005459,OCC1=CC(=O)OC1CC=C(CCC1(C)C(C)CCC2(C1CCCC2=C)C)C,C25H38O3,"InChI=1S/C25H38O3/c1-17(9-10-21-20(16-26)15-23(27)28-21)11-13-24(4)19(3)12-14-25(5)18(2)7-6-8-22(24)25/h9,15,19,21-22,26H,2,6-8,10-14,16H2,1,3-5H3",386.56742,-6.108955943725,-1.4666936541949998,4.6422622895300005,5.257927178322366
000005460,OCC1CC(=O)OC1CC=C(CCC1(COC(=O)C)C(C)CCC2(C1CCCC2=C)C)C,C27H42O5,"InChI=1S/C27H42O5/c1-18(9-10-23-22(16-28)15-25(30)32-23)11-14-27(17-31-21(4)29)20(3)12-13-26(5)19(2)7-6-8-24(26)27/h9,20,22-24,28H,2,6-8,10-17H2,1,3-5H3",446.61938,-6.34569499366,-0.05714390860500007,6.2885510850549995,3.972214762511589
000005461,CCCCCC(C=CC1OC(O)CC(C1CC=CCCCC(=O)O)O)O,C20H34O6,"InChI=1S/C20H34O6/c1-2-3-6-9-15(21)12-13-18-16(17(22)14-20(25)26-18)10-7-4-5-8-11-19(23)24/h4,7,12-13,15-18,20-22,25H,2-3,5-6,8-11,14H2,1H3,(H,23,24)",370.48036,-6.6912795837950005,-0.1714317258150002,6.51984785798,3.4435612325628826
000005463,OCC1OC(CC1OP(=O)(O)O)n1cc(C)c(=O)[nH]c1=O,C10H15N2O8P,"InChI=1S/C10H15N2O8P/c1-5-3-12(10(15)11-9(5)14)8-2-6(7(4-13)19-8)20-21(16,17)18/h3,6-8,13H,2,4H2,1H3,(H,11,14,15)(H2,16,17,18)",322.208461,-6.416444594790001,-1.2544448508050001,5.1619997439850005,3.077092515455783
000005464,O=c1[nH]c(=O)n(cc1C)C1OC2C(C1)OP(=O)(OC2)O,C10H13N2O7P,"InChI=1S/C10H13N2O7P/c1-5-3-12(10(14)11-9(5)13)8-2-6-7(18-8)4-17-20(15,16)19-6/h3,6-8H,2,4H2,1H3,(H,15,16)(H,11,13,14)",304.193181,-6.54161696602,-1.3524058369850005,5.189211129035,3.7119466232111957
000005465,CC(=O)Oc1cc(C(C)C)c(cc1C)O,C12H16O3,"InChI=1S/C12H16O3/c1-7(2)10-6-12(15-9(4)13)8(3)5-11(10)14/h5-7,14H,1-4H3",208.25364,-5.542959134685,-0.13605692525000013,5.406902209435,2.7652137415516367
000005466,OC(=O)C1CCCN(C1)CCC=C(c1sccc1C)c1sccc1C,C20H25NO2S2,"InChI=1S/C20H25NO2S2/c1-14-7-11-24-18(14)17(19-15(2)8-12-25-19)6-4-10-21-9-3-5-16(13-21)20(22)23/h6-8,11-12,16H,3-5,9-10,13H2,1-2H3,(H,22,23)",375.548,-5.7143908605,-0.7728033354199999,4.94158752508,4.178735875082918
000005467,CCN(CCNC(=O)c1cc(ccc1OC)S(=O)(=O)C)CC,C15H24N2O4S,"InChI=1S/C15H24N2O4S/c1-5-17(6-2)10-9-16-15(18)13-11-12(22(4,19)20)7-8-14(13)21-3/h7-8,11H,5-6,9-10H2,1-4H3,(H,16,18)",328.42706,-5.95385104894,-1.2163489117349995,4.737502137205,7.575285190519232
000005468,OC(=O)C(c1ccc(s1)C(=O)c1ccccc1)C,C14H12O3S,"InChI=1S/C14H12O3S/c1-9(14(16)17)11-7-8-12(18-11)13(15)10-5-3-2-4-6-10/h2-9H,1H3,(H,16,17)",260.30828,-6.908970664195,-2.0326904632350002,4.87628020096,3.5121251344097923
000005469,OCCN1CCN(CC1)C(=O)Cn1c(=O)sc2c1cc(Cl)cc2,C15H18ClN3O3S,"InChI=1S/C15H18ClN3O3S/c16-11-1-2-13-12(9-11)19(15(22)23-13)10-14(21)18-5-3-17(4-6-18)7-8-20/h1-2,9,20H,3-8,10H2",355.83972,-5.9701778799700005,-0.7755244739249996,5.194653406045001,1.2764561711038103
000005470,C#CC1(O)CCC2C1(C)CCC1C2C(C)CC2=C1CCC(=O)C2,C21H28O2,"InChI=1S/C21H28O2/c1-4-21(23)10-8-18-19-13(2)11-14-12-15(22)5-6-16(14)17(19)7-9-20(18,21)3/h1,13,17-19,23H,5-12H2,2-3H3",312.44582,-6.081744558675,-0.3401423131249999,5.74160224555,3.6082075330516954
000005471,O=C(C(c1cscc1)C(=O)O)NC1C(=O)N2C1SC(C2C(=O)O)(C)C,C15H16N2O6S2,"InChI=1S/C15H16N2O6S2/c1-15(2)9(14(22)23)17-11(19)8(12(17)25-15)16-10(18)7(13(20)21)6-3-4-24-5-6/h3-5,7-9,12H,1-2H3,(H,16,18)(H,20,21)(H,22,23)",384.42734,-6.36202182469,-1.0013789698400002,5.36064285485,5.353500117821237
000005472,Clc1ccccc1CN1CCc2c(C1)ccs2,C14H14ClNS,"InChI=1S/C14H14ClNS/c15-13-4-2-1-3-11(13)9-16-7-5-14-12(10-16)6-8-17-14/h1-4,6,8H,5,7,9-10H2",263.78566,-6.027321788575001,-0.24218132694500039,5.78514046163,0.6543584418833457
000005474,OC(COc1cn(C)c(=O)c2c1cccc2)CNC(C)(C)C,C17H24N2O3,"InChI=1S/C17H24N2O3/c1-17(2,3)18-9-12(20)11-22-15-10-19(4)16(21)14-8-6-5-7-13(14)15/h5-8,10,12,18,20H,9,11H2,1-4H3",304.38406,-5.314383500265,-0.9796098618000002,4.334773638465,3.1228365043897193
000005475,CCN(CCOc1ccc2c(c1)C(=O)c1c2ccc(c1)OCCN(CC)CC)CC,C25H34N2O3,"InChI=1S/C25H34N2O3/c1-5-26(6-2)13-15-29-19-9-11-21-22-12-10-20(30-16-14-27(7-3)8-4)18-24(22)25(28)23(21)17-19/h9-12,17-18H,5-8,13-16H2,1-4H3",410.54906,-5.1619997439850005,-1.9238449230350003,3.23815482095,2.414168830025978
000005478,OC(COc1nsnc1N1CCOCC1)CNC(C)(C)C,C13H24N4O3S,"InChI=1S/C13H24N4O3S/c1-13(2,3)14-8-10(18)9-20-12-11(15-21-16-12)17-4-6-19-7-5-17/h10,14,18H,4-9H2,1-3H3",316.41966,-5.815072985185,-0.9768887232950005,4.8381842618899995,2.5049029803866656
000005479,CCS(=O)(=O)CCn1c(C)ncc1[N+](=O)[O-],C8H13N3O4S,"InChI=1S/C8H13N3O4S/c1-3-16(14,15)5-4-10-7(2)9-6-8(10)11(12)13/h6H,3-5H2,1-2H3",247.27152,-6.729375522865,-2.266708374665,4.4626671482,4.806184208504393
000005480,CCOC(=O)c1c(N)sc2c1CCN(C2)Cc1ccccc1,C17H20N2O2S,"InChI=1S/C17H20N2O2S/c1-2-21-17(20)15-13-8-9-19(11-14(13)22-16(15)18)10-12-6-4-3-5-7-12/h3-7H,2,8-11,18H2,1H3",316.4179,-5.134788358935,-0.454430130335,4.6803582286,3.679334236674483
000005482,Clc1ccc(c(c1)Cl)C(Cn1ccnc1)OCc1ccsc1Cl,C16H13Cl3N2OS,"InChI=1S/C16H13Cl3N2OS/c17-12-1-2-13(14(18)7-12)15(8-21-5-4-20-10-21)22-9-11-3-6-23-16(11)19/h1-7,10,15H,8-9H2",387.71122,-5.95385104894,-0.8707643216000003,5.0830867273399996,2.8195424461555816
000005483,CC(C(=O)NCC(=O)O)S,C5H9NO3S,"InChI=1S/C5H9NO3S/c1-3(10)5(9)6-2-4(7)8/h3,10H,2H2,1H3,(H,6,9)(H,7,8)",163.19486,-6.726654384360001,-0.721101703825,6.005552680535001,4.003848981607698
000005484,CN1CCCC(=C(c2cccs2)c2cccs2)C1,C15H17NS2,"InChI=1S/C15H17NS2/c1-16-8-2-5-12(11-16)15(13-6-3-9-17-13)14-7-4-10-18-14/h3-4,6-7,9-10H,2,5,8,11H2,1H3",275.43218,-5.64364125937,-0.5088529004350004,5.134788358934999,0.9242469053294147
000005486,CCCCS(=O)(=O)NC(C(=O)O)Cc1ccc(cc1)OCCCCC1CCNCC1,C22H36N2O5S,"InChI=1S/C22H36N2O5S/c1-2-3-16-30(27,28)24-21(22(25)26)17-19-7-9-20(10-8-19)29-15-5-4-6-18-11-13-23-14-12-18/h7-10,18,21,23-24H,2-6,11-17H2,1H3,(H,25,26)",440.59664,-5.95385104894,-0.4898049309000001,5.46404611804,6.700063441330836
000005487,Clc1ccc2c(c1NC1=NCCN1)nsn2,C9H8ClN5S,"InChI=1S/C9H8ClN5S/c10-5-1-2-6-8(15-16-14-6)7(5)13-9-11-3-4-12-9/h1-2H,3-4H2,(H2,11,12,13)",253.71132,-5.744323384055001,-2.56875474872,3.1755686353350008,2.3186823591272696
000005489,OCC(NC(=O)C(C(C)C)NC(=O)C(NC(=O)OCc1ccccc1)C)Cc1ccccc1,C25H33N3O5,"InChI=1S/C25H33N3O5/c1-17(2)22(24(31)27-21(15-29)14-19-10-6-4-7-11-19)28-23(30)18(3)26-25(32)33-16-20-12-8-5-9-13-20/h4-13,17-18,21-22,29H,14-16H2,1-3H3,(H,26,32)(H,27,31)(H,28,30)",455.54662,-6.528011273495,-0.42993988379000037,6.098071389705,4.047633583864651
000005490,CCN(CCCCCCCOC(=O)c1cc(OC)c(c(c1)OC)OC)CC,C21H35NO5,"InChI=1S/C21H35NO5/c1-6-22(7-2)13-11-9-8-10-12-14-27-21(23)17-15-18(24-3)20(26-5)19(16-17)25-4/h15-16H,6-14H2,1-5H3",381.5063,-5.363363993355,-0.7891301664499997,4.574233826905,0.8816178574660338
000005491,COc1ccc(c(c1)OC)C=Cc1cc(OC)cc(c1)OC,C18H20O4,"InChI=1S/C18H20O4/c1-19-15-8-7-14(18(12-15)22-4)6-5-13-9-16(20-2)11-17(10-13)21-3/h5-12H,1-4H3",300.349,-4.898049309,-0.7074960113,4.1905532977,2.8771420309138374
000005493,O=C1NC(C(=O)C1=C(Nc1ccccc1)C)Cc1ccccc1,C19H18N2O2,"InChI=1S/C19H18N2O2/c1-13(20-15-10-6-3-7-11-15)17-18(22)16(21-19(17)23)12-14-8-4-2-5-9-14/h2-11,16,20H,12H2,1H3,(H,21,23)",306.35842,-5.73615996854,-1.4013863300749998,4.334773638465,1.9622194078280337
000005494,CCN(CCCCCCCCOC(=O)c1cc(OC)c(c(c1)OC)OC)CC,C22H37NO5,"InChI=1S/C22H37NO5/c1-6-23(7-2)14-12-10-8-9-11-13-15-28-22(24)18-16-19(25-3)21(27-5)20(17-18)26-4/h16-17H,6-15H2,1-5H3",395.53288,-5.390575378405,-0.829947244025,4.56062813438,3.196898618885966
000005495,CCOCn1c(=O)[nH]c(=O)c(c1Sc1ccccc1)C(C)C,C16H20N2O3S,"InChI=1S/C16H20N2O3S/c1-4-21-10-18-15(22-12-8-6-5-7-9-12)13(11(2)3)14(19)17-16(18)20/h5-9,11H,4,10H2,1-3H3,(H,17,19,20)",320.4066,-6.23684945346,-1.5129530087800003,4.723896444679999,3.188525995743331
000005496,NCC1OC(OC2C(N)CC(C(C2O)OC2OC(CO)C(C(C2O)N)O)N)C(CC1O)N,C18H37N5O9,"InChI=1S/C18H37N5O9/c19-3-9-8(25)2-7(22)17(29-9)31-15-5(20)1-6(21)16(14(15)28)32-18-13(27)11(23)12(26)10(4-24)30-18/h5-18,24-28H,1-4,19-23H2",467.51448,-5.94840877193,1.2789350973499998,7.227343869279999,1.0589217343118422
000005497,CCN(C(=O)c1cccnc1)CC,C10H14N2O,"InChI=1S/C10H14N2O/c1-3-12(4-2)10(13)9-6-5-7-11-8-9/h5-8H,3-4H2,1-2H3",178.23096,-6.45998281087,-0.9333505072149997,5.526632303655,3.662498022641514
000005498,CC(c1ccc(cc1)C)OC(=O)C1CCC(C1(C)C)(C)C(=O)O,C19H26O4,"InChI=1S/C19H26O4/c1-12-6-8-14(9-7-12)13(2)23-16(20)15-10-11-19(5,17(21)22)18(15,3)4/h6-9,13,15H,10-11H2,1-5H3,(H,21,22)",318.40734,-6.451819395355001,-0.19047969534999964,6.261339700005001,4.472323572057035
000005501,CCOC(=O)NNc1nncc2c1cccc2,C11H12N4O2,"InChI=1S/C11H12N4O2/c1-2-17-11(16)15-14-10-9-6-4-3-5-8(9)7-12-13-10/h3-7H,2H2,1H3,(H,13,14)(H,15,16)",232.23858,-5.972899018475,-1.65989448805,4.313004530425,2.9424684963236225
000005502,CCC1C(=NN=C(c2c1cc(OC)c(c2)OC)c1ccc(c(c1)OC)OC)C,C22H26N2O4,"InChI=1S/C22H26N2O4/c1-7-15-13(2)23-24-22(14-8-9-18(25-3)19(10-14)26-4)17-12-21(28-6)20(27-5)11-16(15)17/h8-12,15H,7H2,1-6H3",382.45284,-5.210980237075,-1.1292724795749995,4.0817077575,3.494986379101641
000005503,O=C(NS(=O)(=O)c1ccc(cc1)C)NN1CCCCCC1,C14H21N3O3S,"InChI=1S/C14H21N3O3S/c1-12-6-8-13(9-7-12)21(19,20)16-14(18)15-17-10-4-2-3-5-11-17/h6-9H,2-5,10-11H2,1H3,(H2,15,16,18)",311.39984,-6.3021567775800005,-1.227233465755,5.074923311825001,4.436029236850226
000005504,c1ccc(cc1)CC1=NCCN1,C10H12N2,"InChI=1S/C10H12N2/c1-2-4-9(5-3-1)8-10-11-6-7-12-10/h1-5H,6-8H2,(H,11,12)",160.21568,-5.82867867771,-0.1932008338550002,5.635477843855,2.394851442039986
000005505,CCCCNC(=O)NS(=O)(=O)c1ccc(cc1)C,C12H18N2O3S,"InChI=1S/C12H18N2O3S/c1-3-4-9-13-12(15)14-18(16,17)11-7-5-10(2)6-8-11/h5-8H,3-4,9H2,1-2H3,(H2,13,14,15)",270.34792,-6.778356015955,-1.1564838646250006,5.621872151329999,4.646564373513618
000005506,Cc1cccc(c1)N(C(=S)Oc1ccc2c(c1)C1CCC2C1)C,C20H21NOS,"InChI=1S/C20H21NOS/c1-13-4-3-5-16(10-13)21(2)20(23)22-17-8-9-18-14-6-7-15(11-14)19(18)12-17/h3-5,8-10,12,14-15H,6-7,11H2,1-2H3",323.45184,-5.439555871495,-0.6013716096049997,4.83818426189,2.9374653420820134
000005507,OC(=O)c1ccccc1Nc1ccc(c(c1)C)Cl,C14H12ClNO2,"InChI=1S/C14H12ClNO2/c1-9-8-10(6-7-12(9)15)16-13-5-3-2-4-11(13)14(17)18/h2-8,16H,1H3,(H,17,18)",261.70358,-5.64908353638,-1.1809741111700003,4.46810942521,3.6258060094865803
000005509,OC(=O)Cc1ccc(n1C)C(=O)c1ccc(cc1)C,C15H15NO3,"InChI=1S/C15H15NO3/c1-10-3-5-11(6-4-10)15(19)13-8-7-12(16(13)2)9-14(17)18/h3-8H,9H2,1-2H3,(H,17,18)",257.2845,-6.027321788575001,-1.580981471405,4.446340317170001,0.7290923400139382
000005510,Cc1cccc(c1)N(C(=S)Oc1ccc2c(c1)cccc2)C,C19H17NOS,"InChI=1S/C19H17NOS/c1-14-6-5-9-17(12-14)20(2)19(22)21-18-11-10-15-7-3-4-8-16(15)13-18/h3-13H,1-2H3",307.40938,-5.575612796745,-0.9823310003049999,4.59328179644,3.165386597927179
000005511,CC(C(=O)c1ccc(cc1)C)CN1CCCCC1,C16H23NO,"InChI=1S/C16H23NO/c1-13-6-8-15(9-7-13)16(18)14(2)12-17-10-4-3-5-11-17/h6-9,14H,3-5,10-12H2,1-2H3",245.35992,-5.58921848927,-1.0122635238599997,4.576954965410001,2.2956572541396505
000005512,Cc1ccc(c(c1)C(c1ccccc1)CCN(C(C)C)C(C)C)O,C22H31NO,"InChI=1S/C22H31NO/c1-16(2)23(17(3)4)14-13-20(19-9-7-6-8-10-19)21-15-18(5)11-12-22(21)24/h6-12,15-17,20,24H,13-14H2,1-5H3",325.48764,-5.43139245598,-0.17415286431999988,5.25723959166,1.5764091951298687
000005514,NS(=O)(=O)OCC12OCC3C(C2OC(O1)(C)C)OC(O3)(C)C,C12H21NO8S,"InChI=1S/C12H21NO8S/c1-10(2)18-7-5-16-12(6-17-22(13,14)15)9(8(7)19-10)20-11(3,4)21-12/h7-9H,5-6H2,1-4H3,(H2,13,14,15)",339.36204,-6.702164137815,0.14149920226000035,6.843663340075,3.886431468496518
000005515,CCC1(O)C(=O)OCc2c1cc1c3nc4ccc(c(c4cc3Cn1c2=O)CN(C)C)O,C23H23N3O5,"InChI=1S/C23H23N3O5/c1-4-23(30)16-8-18-20-12(9-26(18)21(28)15(16)11-31-22(23)29)7-13-14(10-25(2)3)19(27)6-5-17(13)24-20/h5-8,27,30H,4,9-11H2,1-3H3",421.44582,-5.7035063064800005,-2.01908477071,3.6844215357700003,8.38324327361696
000005516,ClCCC(=C(c1ccccc1)c1ccc(cc1)OCCN(C)C)c1ccccc1,C26H28ClNO,"InChI=1S/C26H28ClNO/c1-28(2)19-20-29-24-15-13-23(14-16-24)26(22-11-7-4-8-12-22)25(17-18-27)21-9-5-3-6-10-21/h3-16H,17-20H2,1-2H3",405.95962,-5.39873879392,-0.6802846262499997,4.71845416767,4.180457049322239
000005518,ClC(C1C(C)(C)C2(C(C1(Cl)C(C2Cl)Cl)(Cl)Cl)Cl)Cl,C10H10Cl8,"InChI=1S/C10H10Cl8/c1-7(2)3(6(13)14)8(15)4(11)5(12)9(7,16)10(8,17)18/h3-6H,1-2H3",413.8104,-7.57564959792,-0.9687253077799998,6.60692429014,3.0646012789274883
000005519,c1ccc(nc1)CN(Cc1ccccn1)CCN(Cc1ccccn1)Cc1ccccn1,C26H28N6,"InChI=1S/C26H28N6/c1-5-13-27-23(9-1)19-31(20-24-10-2-6-14-28-24)17-18-32(21-25-11-3-7-15-29-25)22-26-12-4-8-16-30-26/h1-16H,17-22H2",424.54072,-5.600103043290001,-0.7047748727950003,4.8953281704950005,5.780025101627414
000005520,[O-]P(=O)(C1=CC[NH2+]CC1)C,C6H12NO2P,"InChI=1S/C6H12NO2P/c1-10(8,9)6-2-4-7-5-3-6/h2,7H,3-5H2,1H3,(H,8,9)",161.138741,-5.0068948492,-0.808178135985,4.198716713215,16.07952059120725
000005521,CP(=O)(C1=CCNCC1)O,C6H12NO2P,"InChI=1S/C6H12NO2P/c1-10(8,9)6-2-4-7-5-3-6/h2,7H,3-5H2,1H3,(H,8,9)",161.138741,-6.06269658914,-0.23129677292499995,5.831399816215,2.116864692605789
000005522,CCCCNc1c(C(=O)OCC)c(C)nc2c1cnn2CC,C16H24N4O2,"InChI=1S/C16H24N4O2/c1-5-8-9-17-14-12-10-18-20(6-2)15(12)19-11(4)13(14)16(21)22-7-3/h10H,5-9H2,1-4H3,(H,17,19)",304.38736,-5.537516857675,-0.6285829946549999,4.90893386302,2.468221922037198
000005523,COc1cccc(c1)C1(O)CCCCC1CN(C)C,C16H25NO2,"InChI=1S/C16H25NO2/c1-17(2)12-14-7-4-5-10-16(14,18)13-8-6-9-15(11-13)19-3/h6,8-9,11,14,18H,4-5,7,10,12H2,1-3H3",263.3752,-5.632756705349999,0.13333578674499957,5.766092492094999,2.583127728001463
000005524,C1CN=C(N1)Nc1cccc2c1CCCC2,C13H17N3,"InChI=1S/C13H17N3/c1-2-6-11-10(4-1)5-3-7-12(11)16-13-14-8-9-15-13/h3,5,7H,1-2,4,6,8-9H2,(H2,14,15,16)",215.29418,-5.412344486445,0.15510489478500045,5.56744938123,2.5310166906982263
000005525,CCOC(=O)C(NC(C(=O)N1C2CCCCC2CC1C(=O)O)C)CCc1ccccc1,C24H34N2O5,"InChI=1S/C24H34N2O5/c1-3-31-24(30)19(14-13-17-9-5-4-6-10-17)25-16(2)22(27)26-20-12-8-7-11-18(20)15-21(26)23(28)29/h4-6,9-10,16,18-21,25H,3,7-8,11-15H2,1-2H3,(H,28,29)",430.53716,-6.2803876695400005,-0.3945650832250003,5.885822586315,5.185850610367985
000005526,NCC1CCC(CC1)C(=O)O,C8H15NO2,"InChI=1S/C8H15NO2/c9-5-6-1-3-7(4-2-6)8(10)11/h6-7H,1-5,9H2,(H,10,11)",157.2102,-6.413723456285,0.3510268671450003,6.76475032343,4.386030849496273
000005527,COc1cc(C=CC(=O)Nc2ccccc2C(=O)O)ccc1OC,C18H17NO5,"InChI=1S/C18H17NO5/c1-23-15-9-7-12(11-16(15)24-2)8-10-17(20)19-14-6-4-3-5-13(14)18(21)22/h3-11H,1-2H3,(H,19,20)(H,21,22)",327.33128,-5.461324979535,-1.7224806736649998,3.7388443058700003,0.4423819491728838
000005528,O=CC1(C)C2CCC1(C)C(=O)C2,C10H14O2,"InChI=1S/C10H14O2/c1-9-4-3-7(5-8(9)12)10(9,2)6-11/h6-7H,3-5H2,1-2H3",166.21696,-6.489915334425,-0.9415139227299996,5.548401411695,0.4218789530315538
000005529,OCC(=CCNc1ncnc2c1ncn2C1OC(C(C1O)O)CO)C,C15H21N5O5,"InChI=1S/C15H21N5O5/c1-8(4-21)2-3-16-13-10-14(18-6-17-13)20(7-19-10)15-12(24)11(23)9(5-22)25-15/h2,6-7,9,11-12,15,21-24H,3-5H2,1H3,(H,16,17,18)",351.35774,-5.80690956967,-0.7891301664499997,5.0177794032200005,2.457259991770712
000005530,NC1CC1c1ccccc1,C9H11N,"InChI=1S/C9H11N/c10-9-6-8(9)7-4-2-1-3-5-7/h1-5,8-9H,6,10H2",133.19034,-5.7388811070450005,0.11428781721000014,5.853168924255001,1.368722763880984
000005531,CCN(c1cc(C)nc2n1ncn2)CC,C10H15N5,"InChI=1S/C10H15N5/c1-4-14(5-2)9-6-8(3)13-10-11-7-12-15(9)10/h6-7H,4-5H2,1-3H3",205.2596,-5.7606502150850005,-0.8626009060849995,4.898049309000001,6.396156496467312
000005533,Clc1cccc(c1)N1CCN(CC1)CCCn1nc2n(c1=O)cccc2,C19H22ClN5O,"InChI=1S/C19H22ClN5O/c20-16-5-3-6-17(15-16)23-13-11-22(12-14-23)8-4-10-25-19(26)24-9-2-1-7-18(24)21-25/h1-3,5-7,9,15H,4,8,10-14H2",371.86388,-5.01233712621,-1.4666936541950002,3.545643472015,5.838370755545677
000005534,C1CCN(C1)CC#CCN1CCCC1,C12H20N2,"InChI=1S/C12H20N2/c1-2-8-13(7-1)11-5-6-12-14-9-3-4-10-14/h1-4,7-12H2",192.3006,-5.630035566845,0.97416758479,6.604203151635,0.13675829651249682
000005536,CCOc1cc(OCC)c(cc1C(=O)CCC(=O)O)OCC,C16H22O6,"InChI=1S/C16H22O6/c1-4-20-13-10-15(22-6-3)14(21-5-2)9-11(13)12(17)7-8-16(18)19/h9-10H,4-8H2,1-3H3,(H,18,19)",310.34228,-5.62187215133,-1.4558091001750002,4.166063051155,10.002291254633361
000005537,COc1cc2c(cc1OC)CCn1c2cc(=Nc2c(C)cc(cc2C)C)n(c1=O)C,C24H27N3O3,"InChI=1S/C24H27N3O3/c1-14-9-15(2)23(16(3)10-14)25-22-13-19-18-12-21(30-6)20(29-5)11-17(18)7-8-27(19)24(28)26(22)4/h9-13H,7-8H2,1-6H3",405.48948,-5.2354704836199994,-1.4095497455899997,3.8259207380299998,5.242923449012869
000005538,CC(=CC=CC(=CC(=O)O)C)C=CC1=C(C)CCCC1(C)C,C20H28O2,"InChI=1S/C20H28O2/c1-15(8-6-9-16(2)14-19(21)22)11-12-18-17(3)10-7-13-20(18,4)5/h6,8-9,11-12,14H,7,10,13H2,1-5H3,(H,21,22)",300.43512,-5.64364125937,-1.7306440891800001,3.9129971701899997,3.0158142470742457
000005541,CC(=O)OC(COC(=O)C)COC(=O)C,C9H14O6,"InChI=1S/C9H14O6/c1-6(10)13-4-9(15-8(3)12)5-14-7(2)11/h9H,4-5H2,1-3H3",218.20386,-7.3416316864899995,-0.008163415514999883,7.333468270975,3.0813294508395237
000005542,CCCC=CCC=CC=CC=NNN=O,C11H17N3O,"InChI=1S/C11H17N3O/c1-2-3-4-5-6-7-8-9-10-11-12-13-14-15/h4-5,7-11H,2-3,6H2,1H3,(H,13,15)",207.27218,-5.907591694355,-1.961940862105,3.94565083225,6.084306993476742
000005543,CC(N(C(=O)SCC(=C(Cl)Cl)Cl)C(C)C)C,C10H16Cl3NOS,"InChI=1S/C10H16Cl3NOS/c1-6(2)14(7(3)4)10(15)16-5-8(11)9(12)13/h6-7H,5H2,1-4H3",304.66414,-6.31848360861,-0.721101703825,5.597381904785,3.6131294447372073
000005544,OCC(=O)C1(O)C(O)CC2C1(C)CC(O)C1(C2CCC2=CC(=O)C=CC12C)F,C21H27FO6,"InChI=1S/C21H27FO6/c1-18-6-5-12(24)7-11(18)3-4-13-14-8-15(25)21(28,17(27)10-23)19(14,2)9-16(26)20(13,18)22/h5-7,13-16,23,25-26,28H,3-4,8-10H2,1-2H3",394.4338832,-4.97968346415,-1.6190774104749996,3.360606053675,7.637334528637134
000005546,Nc1nc(N)c2c(n1)nc(c(n2)c1ccccc1)N,C12H11N7,"InChI=1S/C12H11N7/c13-9-7(6-4-2-1-3-5-6)16-8-10(14)18-12(15)19-11(8)17-9/h1-5H,(H6,13,14,15,17,18,19)",253.26264,-5.3796908243849995,-1.3388001444600004,4.040890679924999,2.5466663557531444
000005548,OCC#CC#CC#CC(CCCCCCCCC=CCCCCCCCCCCC=CC(C#C)O)O,C33H48O3,"InChI=1S/C33H48O3/c1-2-32(35)28-24-20-17-15-13-11-9-7-5-3-4-6-8-10-12-14-16-18-21-25-29-33(36)30-26-22-19-23-27-31-34/h1,6,8,24,28,32-36H,3-5,7,9-18,20-21,25,29,31H2",492.73242,-6.29127222356,-1.5211164242950002,4.770155799265,2.2291628610805896
000005551,OCC#CC#CC#CC(CCCCCCC#CC=CCCCCCCCCCC=CC(C#C)O)O,C32H42O3,"InChI=1S/C32H42O3/c1-2-31(34)27-23-19-16-14-12-10-8-6-4-3-5-7-9-11-13-15-17-20-24-28-32(35)29-25-21-18-22-26-30-33/h1,5,7,23,27,31-35H,3-4,6,8,10,12-17,19-20,24,28,30H2",474.67408,-5.77969818462,-1.52927983981,4.25041834481,2.016930219321928
000005555,C#CC(C=CCCCCCCCCCCCCC=CCCCCCCCCCC=CC#CC(=O)O)O,C33H52O3,"InChI=1S/C33H52O3/c1-2-32(34)30-28-26-24-22-20-18-16-14-12-10-8-6-4-3-5-7-9-11-13-15-17-19-21-23-25-27-29-31-33(35)36/h1,3,5,25,27-28,30,32,34H,4,6-24,26H2,(H,35,36)",496.76418,-6.35113727067,-1.804114828815,4.547022441855,5.169687300546523
000005556,Clc1ccc2c(c1)C(=NCc1n2c(C)nn1)c1ccccc1Cl,C17H12Cl2N4,"InChI=1S/C17H12Cl2N4/c1-10-21-22-16-9-20-17(12-4-2-3-5-14(12)19)13-8-11(18)6-7-15(13)23(10)16/h2-8H,9H2,1H3",343.20998,-6.440934841335,-1.8857489839649997,4.555185857370001,5.3290276740093026
000005557,CCOC1OC(C(C1O)OCc1ccccc1)C(OCc1ccccc1)COCc1ccccc1,C29H34O6,"InChI=1S/C29H34O6/c1-2-32-29-26(30)28(34-20-24-16-10-5-11-17-24)27(35-29)25(33-19-23-14-8-4-9-15-23)21-31-18-22-12-6-3-7-13-22/h3-17,25-30H,2,18-21H2,1H3",478.57666,-6.326647024125,-0.10612440169500026,6.22052262243,1.2028761182515846
000005560,ClC(C1Nc2cc(Cl)c(cc2S(=O)(=O)N1)S(=O)(=O)N)Cl,C8H8Cl3N3O4S2,"InChI=1S/C8H8Cl3N3O4S2/c9-3-1-4-6(2-5(3)19(12,15)16)20(17,18)14-8(13-4)7(10)11/h1-2,7-8,13-14H,(H2,12,15,16)",380.65582,-6.6695104757550006,-1.6626156265550005,5.0068948492,6.991177521486706
000005561,ClCCN(CCCl)CCCl,C6H12Cl3N,InChI=1S/C6H12Cl3N/c7-1-4-10(5-2-8)6-3-9/h1-6H2,204.52518,-6.813730816520001,0.37551711368999996,7.1892479302100005,0.29960152297843884
000005562,ONC(=O)C=CC(=CC(C(=O)c1ccc(cc1)N(C)C)C)C,C17H22N2O3,"InChI=1S/C17H22N2O3/c1-12(5-10-16(20)18-22)11-13(2)17(21)14-6-8-15(9-7-14)19(3)4/h5-11,13,22H,1-4H3,(H,18,20)",302.36818,-5.700785167975,-1.3660115295099997,4.334773638465,8.95374281194736
000005563,ClC(COP(=O)(O)O)(Cl)Cl,C2H4Cl3O4P,"InChI=1S/C2H4Cl3O4P/c3-2(4,5)1-9-10(6,7)8/h1H2,(H2,6,7,8)",229.383521,-8.57158629075,-0.9632830307700004,7.60830325998,2.4934589541576577