mol_id,SMILES,formula,inchi,mass,HOMO(eV),LUMO(eV),GAP(eV),dipole_moment
000001299,OC(=O)C(Cn1cc(F)c(=O)[nH]c1=O)N,C7H8FN3O4,"InChI=1S/C7H8FN3O4/c8-3-1-11(2-4(9)6(13)14)7(15)10-5(3)12/h1,4H,2,9H2,(H,13,14)(H,10,12,15)",217.1545232,-6.84638447858,-1.717038396655,5.129346081925,3.778672164641304
000001301,COc1ccc2c(c1)ccc(c2)C(C(=O)[O-])C.[Na+],C14H13NaO3,"InChI=1S/C14H14O3.Na/c1-9(14(15)16)10-3-4-12-8-13(17-2)6-5-11(12)7-10;/h3-9H,1-2H3,(H,15,16);/q;+1/p-1",252.24099,-4.9524720791,-1.695269288615,3.2572027904849996,6.186158087456058
000001302,COc1ccc2c(c1)ccc(c2)C(C(=O)O)C,C14H14O3,"InChI=1S/C14H14O3/c1-9(14(15)16)10-3-4-12-8-13(17-2)6-5-11(12)7-10/h3-9H,1-2H3,(H,15,16)",230.25916,-5.733438830035,-1.2653294048249997,4.468109425210001,6.439726846182996
000001303,OC(=O)C(c1ccccc1)(O)C,C9H10O3,"InChI=1S/C9H10O3/c1-9(12,8(10)11)7-5-3-2-4-6-7/h2-6,12H,1H3,(H,10,11)",166.1739,-6.65046250622,-0.3510268671450003,6.299435639075,4.690488990964695
000001304,COC(=O)C(CSCC=C(CCC=C(CCC=C(C)C)C)C)N,C19H33NO2S,"InChI=1S/C19H33NO2S/c1-15(2)8-6-9-16(3)10-7-11-17(4)12-13-23-14-18(20)19(21)22-5/h8,10,12,18H,6-7,9,11,13-14,20H2,1-5H3",339.53582,-5.7606502150850005,0.14966261777500023,5.910312832860001,1.0851603631256534
000001305,O=c1ccc2c([nH]1)CCCC2NCCCCCCCCCCNC1CCCc2c1ccc(=O)[nH]2,C28H42N4O2,"InChI=1S/C28H42N4O2/c33-27-17-15-21-23(11-9-13-25(21)31-27)29-19-7-5-3-1-2-4-6-8-20-30-24-12-10-14-26-22(24)16-18-28(34)32-26/h15-18,23-24,29-30H,1-14,19-20H2,(H,31,33)(H,32,34)",466.65868,-5.25723959166,-1.363290391005,3.8939492006550003,5.201101637331941
000001306,O=c1ccc2c([nH]1)CCCC2NCCCCCCCCCCCCNC1CCCc2c1ccc(=O)[nH]2,C30H46N4O2,"InChI=1S/C30H46N4O2/c35-29-19-17-23-25(13-11-15-27(23)33-29)31-21-9-7-5-3-1-2-4-6-8-10-22-32-26-14-12-16-28-24(26)18-20-30(36)34-28/h17-20,25-26,31-32H,1-16,21-22H2,(H,33,35)(H,34,36)",494.71184,-5.4504404255150005,-1.10478223303,4.345658192485001,4.479572503269704
000001307,O=CNC(NC(=O)C(NC(=O)OC(C)(C)C)C)C,C11H21N3O4,"InChI=1S/C11H21N3O4/c1-7(9(16)14-8(2)12-6-15)13-10(17)18-11(3,4)5/h6-8H,1-5H3,(H,12,15)(H,13,17)(H,14,16)",259.30214,-6.36202182469,0.5088529004350004,6.870874725125001,6.172330269050499
000001308,COC(=O)CC(c1cccc(c1)C(=N)N)CCc1ccc(cc1)C(=N)N,C20H24N4O2,"InChI=1S/C20H24N4O2/c1-26-18(25)12-16(15-3-2-4-17(11-15)20(23)24)10-7-13-5-8-14(9-6-13)19(21)22/h2-6,8-9,11,16H,7,10,12H2,1H3,(H3,21,22)(H3,23,24)",352.43016,-5.98106243399,-0.6285829946549999,5.352479439335,6.669385764191707
000001309,COc1c(OC)ccc2c1C(=O)OC2C1N(C)CCc2c1cc1OCOc1c2,C21H21NO6,"InChI=1S/C21H21NO6/c1-22-7-6-11-8-15-16(27-10-26-15)9-13(11)18(22)19-12-4-5-14(24-2)20(25-3)17(12)21(23)28-19/h4-5,8-9,18-19H,6-7,10H2,1-3H3",383.39454,-5.38241196289,-1.1809741111700003,4.20143785172,4.200600908942077
000001310,OC(=O)C1CCC(C1)(N)C(=O)O,C7H11NO4,"InChI=1S/C7H11NO4/c8-7(6(11)12)2-1-4(3-7)5(9)10/h4H,1-3,8H2,(H,9,10)(H,11,12)",173.16654,-6.696721860805001,-0.27211385050000025,6.4246080103050005,3.998297139510269
000001311,COc1c(OC)ccc2c1C(=O)OC2C1N(C)CCc2c1cccc2,C20H21NO4,"InChI=1S/C20H21NO4/c1-21-11-10-12-6-4-5-7-13(12)17(21)18-14-8-9-15(23-2)19(24-3)16(14)20(22)25-18/h4-9,17-18H,10-11H2,1-3H3",339.38504,-5.55656482721,-1.0857342634950005,4.470830563714999,4.618836711060589
000001312,OC1C(O)C(OC1n1cnc2c1ncn1c2ncc1)COP(=O)(OP(=O)(O)O)O,C12H15N5O10P2,"InChI=1S/C12H15N5O10P2/c18-8-6(3-25-29(23,24)27-28(20,21)22)26-12(9(8)19)17-5-14-7-10-13-1-2-16(10)4-15-11(7)17/h1-2,4-6,8-9,12,18-19H,3H2,(H,23,24)(H2,20,21,22)",451.222522,-5.89398600183,-1.44220340765,4.45178259418,5.090861398667813
000001313,OCC(C1NCC(C1O)O)O,C6H13NO4,"InChI=1S/C6H13NO4/c8-2-4(10)5-6(11)3(9)1-7-5/h3-11H,1-2H2",163.17172,-6.17698440635,0.9714464462850003,7.148430852635,3.388216085430798
000001314,O=C(C(F)(F)F)C(Cc1ccccc1)NC(=O)C,C12H12F3NO2,"InChI=1S/C12H12F3NO2/c1-8(17)16-10(11(18)12(13,14)15)7-9-5-3-2-4-6-9/h2-6,10H,7H2,1H3,(H,16,17)",259.2243896,-6.710327553330001,-1.8530953219050001,4.857232231425001,3.7876353766614073
000001317,NCCCCCCCCCCN,C10H24N2,InChI=1S/C10H24N2/c11-9-7-5-3-1-2-4-6-8-10-12/h1-12H2,172.31096,-6.098071389705,2.3565059453299995,8.454577335035,2.3396421956893323
000001318,c1ccc2c(n1)c1ncccc1cc2,C12H8N2,InChI=1S/C12H8N2/c1-3-9-5-6-10-4-2-8-14-12(10)11(9)13-7-1/h1-8H,180.20532,-6.288551085055,-1.4231554381149998,4.865395646940001,3.2923654568873424
000001319,OC1Cc2c(C(C1O)O)cc1c3c2ccc2c3c(cc1)ccc2,C20H16O3,"InChI=1S/C20H16O3/c21-16-9-14-13-7-6-11-3-1-2-10-4-5-12(18(13)17(10)11)8-15(14)19(22)20(16)23/h1-8,16,19-23H,9H2",304.33924,-5.4966997801,-1.6762213190800002,3.82047846102,3.0721617517287396
000001320,Oc1ccc2c(c1)C(=O)c1c(C2=O)ccc(c1O)O,C14H8O5,"InChI=1S/C14H8O5/c15-6-1-2-7-9(5-6)13(18)11-8(12(7)17)3-4-10(16)14(11)19/h1-5,15-16,19H",256.21032,-6.098071389705,-2.337457975795,3.76061341391,3.4943739303363053
000001321,CCCCCCCCCC(=O)OCC(OC(=O)CCCCCCCCC)CO,C23H44O5,"InChI=1S/C23H44O5/c1-3-5-7-9-11-13-15-17-22(25)27-20-21(19-24)28-23(26)18-16-14-12-10-8-6-4-2/h21,24H,3-20H2,1-2H3",400.59246,-6.827336509045001,-0.059865047109999736,6.767471461935001,2.3477997744562886
000001322,CNNC,C2H8N2,"InChI=1S/C2H8N2/c1-3-4-2/h3-4H,1-2H3",60.09832,-4.835463123385,2.288477482705,7.12394060609,9.982985525382675e-05
000001323,CCCCCCCC(=O)OCC(OC(=O)CCCCCCC)CO,C19H36O5,"InChI=1S/C19H36O5/c1-3-5-7-9-11-13-18(21)23-16-17(15-20)24-19(22)14-12-10-8-6-4-2/h17,20H,3-16H2,1-2H3",344.48614,-6.704885276320001,-0.09796098618000038,6.60692429014,3.3869189722439477
000001326,O=c1n(C)c2n(C)cnc2c(=O)n1C,C8H10N4O2,"InChI=1S/C8H10N4O2/c1-10-4-9-5-6(10)11(2)8(14)12(3)7(5)13/h4H,1-3H3",194.1906,-5.874938032295001,-0.5224585929599996,5.352479439335001,7.262109728496396
000001328,CCn1c2nc([nH]c2c(=O)n(c1=O)CC)c1ccccc1,C15H16N4O2,"InChI=1S/C15H16N4O2/c1-3-18-13-11(14(20)19(4-2)15(18)21)16-12(17-13)10-8-6-5-7-9-10/h5-9H,3-4H2,1-2H3,(H,16,17)",284.31314,-5.71983313751,-1.493905039245,4.225928098265,4.243005839384858
000001329,CCCn1c2nc([nH]c2c(=O)n(c1=O)CCC)C1CCCC1,C16H24N4O2,"InChI=1S/C16H24N4O2/c1-3-9-19-14-12(15(21)20(10-4-2)16(19)22)17-13(18-14)11-7-5-6-8-11/h11H,3-10H2,1-2H3,(H,17,18)",304.38736,-5.706227444985,-0.8489952135600003,4.857232231425,4.478481435930265
000001330,CCCn1c2nc([nH]c2c(=O)n(c1=O)CCC)c1ccc(cc1)S(=O)(=O)O,C17H20N4O5S,"InChI=1S/C17H20N4O5S/c1-3-9-20-15-13(16(22)21(10-4-2)17(20)23)18-14(19-15)11-5-7-12(8-6-11)27(24,25)26/h5-8H,3-4,9-10H2,1-2H3,(H,18,19)(H,24,25,26)",392.4295,-6.0953502512,-2.4082075769249998,3.6871426742750004,1.5627011451979549
000001334,OCC1NC(C(C1O)O)c1c[nH]c2c1[nH]c(N)nc2=O,C11H15N5O4,"InChI=1S/C11H15N5O4/c12-11-15-5-3(1-13-7(5)10(20)16-11)6-9(19)8(18)4(2-17)14-6/h1,4,6,8-9,13-14,17-19H,2H2,(H3,12,15,16,20)",281.2679,-5.65452581339,-0.4489878533249998,5.2055379600650005,4.972895208532853
000001335,OCC1NCC(C1O)O,C5H11NO3,"InChI=1S/C5H11NO3/c7-2-3-5(9)4(8)1-6-3/h3-9H,1-2H2",133.14574,-6.098071389705,1.140157033595,7.2382284233,3.7315385981454083
000001336,OCC1NC(C(C1O)O)c1c[nH]c2c1[nH]cnc2=O,C11H14N4O4,"InChI=1S/C11H14N4O4/c16-2-5-9(17)10(18)7(15-5)4-1-12-8-6(4)13-3-14-11(8)19/h1,3,5,7,9-10,12,15-18H,2H2,(H,13,14,19)",266.25326,-5.885822586315,-0.764639919905,5.12118266641,6.242152209884745
000001340,Oc1cccc2c1cc[nH]c2=O,C9H7NO2,"InChI=1S/C9H7NO2/c11-8-3-1-2-7-6(8)4-5-10-9(7)12/h1-5,11H,(H,10,12)",161.15738,-5.602824181795,-1.053080601435,4.54974358036,3.732973792080518
000001341,C=CC1(C)CC(=O)C2C(O1)(C)C(OC(=O)C)C(C1C2(C)CCCC1(C)C)O,C22H34O5,"InChI=1S/C22H34O5/c1-8-20(5)12-14(24)16-21(6)11-9-10-19(3,4)17(21)15(25)18(26-13(2)23)22(16,7)27-20/h8,15-18,25H,1,9-12H2,2-7H3",378.50236,-6.517126719475,-0.6340252716650001,5.88310144781,3.6575784138806924
000001342,N1CCN(CC1)c1cccc2c1cccc2,C14H16N2,"InChI=1S/C14H16N2/c1-2-6-13-12(4-1)5-3-7-14(13)16-10-8-15-9-11-16/h1-7,15H,8-11H2",212.29024,-5.27356642269,-0.8136204129950002,4.459946009695,1.4255170686768361
000001343,OCC1OC(C2C1O2)n1ccc(=O)[nH]c1=O,C9H10N2O5,"InChI=1S/C9H10N2O5/c12-3-4-6-7(16-6)8(15-4)11-2-1-5(13)10-9(11)14/h1-2,4,6-8,12H,3H2,(H,10,13,14)",226.1861,-6.5688283510700005,-1.0993399560199997,5.469488395050001,4.5521516396723865
000001344,NCCN1CCCC1,C6H14N2,InChI=1S/C6H14N2/c7-3-6-8-4-1-2-5-8/h1-7H2,114.18876,-5.56200710422,2.021805909215,7.583813013435,0.41083656476268027
000001345,CCC(N(C(=O)c1cc2ccccc2c(n1)c1ccccc1Cl)C)C,C21H21ClN2O,"InChI=1S/C21H21ClN2O/c1-4-14(2)24(3)21(25)19-13-15-9-5-6-10-16(15)20(23-19)17-11-7-8-12-18(17)22/h5-14H,4H2,1-3H3",352.85724,-6.06813886615,-1.5891448869199998,4.47899397923,4.859613659403492
000001346,COc1ccccc1N1CCNCC1,C11H16N2O,"InChI=1S/C11H16N2O/c1-14-11-5-3-2-4-10(11)13-8-6-12-7-9-13/h2-5,12H,6-9H2,1H3",192.25754,-5.733438830035,0.11156667870499959,5.84500550874,1.4325308846251799
000001347,Oc1ccc(c(c1)C=Cc1ccc(c(c1)C(=O)O)O)O,C15H12O5,"InChI=1S/C15H12O5/c16-11-4-6-13(17)10(8-11)3-1-9-2-5-14(18)12(7-9)15(19)20/h1-8,16-18H,(H,19,20)",272.25278,-5.308941223255,-1.51839528579,3.790545937465,6.6388997748681975
000001348,Clc1cccc(c1)Nc1nnc(c2c1cccc2)c1ccccc1,C20H14ClN3,"InChI=1S/C20H14ClN3/c21-15-9-6-10-16(13-15)22-20-18-12-5-4-11-17(18)19(23-24-20)14-7-2-1-3-8-14/h1-13H,(H,22,24)",331.79826,-5.5946607662800005,-1.7007115656250003,3.8939492006550003,4.859917095709144
000001350,O=C1CC(=O)N(C(=O)N1)C1OC(C(C1O)O)COP(=O)(O)O,C9H13N2O10P,"InChI=1S/C9H13N2O10P/c12-4-1-5(13)11(9(16)10-4)8-7(15)6(14)3(21-8)2-20-22(17,18)19/h3,6-8,14-15H,1-2H2,(H,10,12,16)(H2,17,18,19)",340.180681,-7.415102426125,-1.869422152935,5.54568027319,5.244765596054889
000001352,CC1NCCN(C1)S(=O)(=O)c1cccc2c1ccnc2,C14H17N3O2S,"InChI=1S/C14H17N3O2S/c1-11-10-17(8-7-16-11)20(18,19)14-4-2-3-12-9-15-6-5-13(12)14/h2-6,9,11,16H,7-8,10H2,1H3",291.36868,-6.2232437609349995,-1.9728254161249996,4.25041834481,4.160442917006193
000001353,O=C(Nc1cccc2c1C1CCCN1C2=O)Nc1ccccn1,C17H16N4O2,"InChI=1S/C17H16N4O2/c22-16-11-5-3-6-12(15(11)13-7-4-10-21(13)16)19-17(23)20-14-8-1-2-9-18-14/h1-3,5-6,8-9,13H,4,7,10H2,(H2,18,19,20,23)",308.33454,-5.978341295485,-1.2734928203399996,4.704848475145001,8.087070357204702
000001354,Clc1cccc(c1)N=C(N=C(N)N)N,C8H10ClN5,"InChI=1S/C8H10ClN5/c9-5-2-1-3-6(4-5)13-8(12)14-7(10)11/h1-4H,(H6,10,11,12,13,14)",211.6515,-5.401459932425,-0.4625935458499999,4.938866386575,4.489889568460454
000001355,Clc1cccc(c1)N1CCNCC1,C10H13ClN2,"InChI=1S/C10H13ClN2/c11-9-2-1-3-10(8-9)13-6-4-12-5-7-13/h1-3,8,12H,4-7H2",196.67662,-5.347037162325,-0.1387780637549998,5.20825909857,2.8023652567076263
000001357,OC(CNS(=O)(=O)c1ccccn1)CNC(=O)C(c1cccc(c1)c1ccccc1)CC(C)C,C26H31N3O4S,"InChI=1S/C26H31N3O4S/c1-19(2)15-24(22-12-8-11-21(16-22)20-9-4-3-5-10-20)26(31)28-17-23(30)18-29-34(32,33)25-13-6-7-14-27-25/h3-14,16,19,23-24,29-30H,15,17-18H2,1-2H3,(H,28,31)",481.60704,-6.049090896615,-1.695269288615,4.353821608,3.3852551263609363
000001359,FC(c1ccccc1n1cncc1)(F)F,C10H7F3N2,"InChI=1S/C10H7F3N2/c11-10(12,13)8-3-1-2-4-9(8)15-6-5-14-7-15/h1-7H",212.1711896,-6.17698440635,-1.3524058369849996,4.824578569365,5.6039254017466185
000001360,COc1ccc(c(c1)Cl)OCCCCCCn1cncc1,C16H21ClN2O2,"InChI=1S/C16H21ClN2O2/c1-20-14-6-7-16(15(17)12-14)21-11-5-3-2-4-9-19-10-8-18-13-19/h6-8,10,12-13H,2-5,9,11H2,1H3",308.80314,-5.521190026645,-0.3047675125599998,5.216422514085,5.84317522743354
000001365,C=CCn1c(=O)n(C)c2c(c1=O)n(C)c(n2)c1ccc(cc1)S(=O)(=O)O,C16H16N4O5S,"InChI=1S/C16H16N4O5S/c1-4-9-20-15(21)12-14(19(3)16(20)22)17-13(18(12)2)10-5-7-11(8-6-10)26(23,24)25/h4-8H,1,9H2,2-3H3,(H,23,24,25)",376.38704,-6.065417727644999,-2.2857563442,3.7796613834449992,2.192573592072339
000001366,OC(=O)C1(N)CCCCC1,C7H13NO2,"InChI=1S/C7H13NO2/c8-7(6(9)10)4-2-1-3-5-7/h1-5,8H2,(H,9,10)",143.18362,-6.593318597615,0.5687179475450002,7.16203654516,5.301906471368954
000001367,Nn1nnc2c1cccc2,C6H6N4,"InChI=1S/C6H6N4/c7-10-6-4-2-1-3-5(6)8-9-10/h1-4H,7H2",134.13864,-6.462703949375,-1.1455993106050002,5.31710463877,2.9965036419524003
000001368,OC(=O)C1CCCC(C1)(N)C(=O)O,C8H13NO4,"InChI=1S/C8H13NO4/c9-8(7(12)13)3-1-2-5(4-8)6(10)11/h5H,1-4,9H2,(H,10,11)(H,12,13)",187.19312,-6.996047096355,0.02449024654499965,7.0205373429,4.130370939089369
000001369,OS(=O)(=O)c1cccc2c1c(ccc2)Nc1ccccc1,C16H13NO3S,"InChI=1S/C16H13NO3S/c18-21(19,20)15-11-5-7-12-6-4-10-14(16(12)15)17-13-8-2-1-3-9-13/h1-11,17H,(H,18,19,20)",299.34432,-5.5021420571099995,-1.8204416598450002,3.6817003972649993,4.284095883400954
000001370,O=C(c1ccc2c(c1)OCO2)N1CCCCC1,C13H15NO3,"InChI=1S/C13H15NO3/c15-13(14-6-2-1-3-7-14)10-4-5-11-12(8-10)17-9-16-11/h4-5,8H,1-3,6-7,9H2",233.2631,-5.668131505915,-0.14694147926999968,5.521190026645001,3.6842933425993647
000001371,ONC(=O)C1CC(=O)N(CN1S(=O)(=O)c1ccc(cc1)OC)Cc1ccccc1,C19H21N3O6S,"InChI=1S/C19H21N3O6S/c1-28-15-7-9-16(10-8-15)29(26,27)22-13-21(12-14-5-3-2-4-6-14)18(23)11-17(22)19(24)20-25/h2-10,17,25H,11-13H2,1H3,(H,20,24)",419.45154,-6.171542129340001,-1.363290391005,4.8082517383350005,8.120886952206146
000001372,COc1ccc2c(c1)c(CC(=O)O)c(n2Cc1ccccc1)C,C19H19NO3,"InChI=1S/C19H19NO3/c1-13-16(11-19(21)22)17-10-15(23-2)8-9-18(17)20(13)12-14-6-4-3-5-7-14/h3-10H,11-12H2,1-2H3,(H,21,22)",309.35906,-5.308941223255,-0.5469488395050002,4.76199238375,6.410113773518298
000001373,OCC1OC(C(C1O)O)n1cnc2c1nccc2N,C11H14N4O4,"InChI=1S/C11H14N4O4/c12-5-1-2-13-10-7(5)14-4-15(10)11-9(18)8(17)6(3-16)19-11/h1-2,4,6,8-9,11,16-18H,3H2,(H2,12,13)",266.25326,-5.695342890965001,-0.5578333935249997,5.137509497440001,2.904013400316534
000001374,OCC1NCC(C(C1O)O)O,C6H13NO4,"InChI=1S/C6H13NO4/c8-2-3-5(10)6(11)4(9)1-7-3/h3-11H,1-2H2",163.17172,-6.587876320605,1.5592123633650008,8.14708868397,1.4565120281851434
000001375,NCCCCNNC(=O)C1CCCN1C(=O)C(Cc1ccccc1)NC(=O)OCC,C21H33N5O4,"InChI=1S/C21H33N5O4/c1-2-30-21(29)24-17(15-16-9-4-3-5-10-16)20(28)26-14-8-11-18(26)19(27)25-23-13-7-6-12-22/h3-5,9-10,17-18,23H,2,6-8,11-15,22H2,1H3,(H,24,29)(H,25,27)",419.51782,-5.921197386879999,-0.09251870917000016,5.828678677709999,5.364305618412321
000001377,CCCCCCCCCCCCCCCCOCC(COP(=O)(OCC[N+](C)(C)C)[O-])OC,C25H54NO6P,"InChI=1S/C25H54NO6P/c1-6-7-8-9-10-11-12-13-14-15-16-17-18-19-21-30-23-25(29-5)24-32-33(27,28)31-22-20-26(2,3)4/h25H,6-24H2,1-5H3",495.673121,-5.864053478275,0.742870811865,6.60692429014,12.872018238989137
000001379,CCCCCCCCCCCCCCCCOCC(OC(=O)C)CO,C21H42O4,"InChI=1S/C21H42O4/c1-3-4-5-6-7-8-9-10-11-12-13-14-15-16-17-24-19-21(18-22)25-20(2)23/h21-22H,3-19H2,1-2H3",358.55578,-6.745702353895,-0.12789350973500024,6.61780884416,4.089415477326069
000001380,CCCCCCCCCCCCCCCCOCC(OC)CO,C20H42O3,"InChI=1S/C20H42O3/c1-3-4-5-6-7-8-9-10-11-12-13-14-15-16-17-23-19-20(18-21)22-2/h20-21H,3-19H2,1-2H3",330.54568,-6.24773400748,1.7524131972199992,8.0001472047,2.7582053103097675
000001381,CCCCCCCCCCOCC(OP(=O)(OC)O)COCC(F)(F)F,C16H32F3O6P,"InChI=1S/C16H32F3O6P/c1-3-4-5-6-7-8-9-10-11-23-12-15(25-26(20,21)22-2)13-24-14-16(17,18)19/h15H,3-14H2,1-2H3,(H,20,21)",408.3906506,-7.249112977320001,0.8816488756199998,8.130761852940001,2.6897816262211696
000001382,O=C1c2ccccc2C(=O)c2c1c(O)c(c(c2)C)C,C16H12O3,"InChI=1S/C16H12O3/c1-8-7-12-13(14(17)9(8)2)16(19)11-6-4-3-5-10(11)15(12)18/h3-7,17H,1-2H3",252.26468,-6.23684945346,-2.41092871543,3.8259207380299998,3.0210975330381173
000001383,CN(N(N=O)O)CCCNC,C5H14N4O2,"InChI=1S/C5H14N4O2/c1-6-4-3-5-8(2)9(11)7-10/h6,11H,3-5H2,1-2H3",162.19026,-5.7905827386399995,-0.43266102229500003,5.3579217163449995,5.567190795275567
000001384,COc1cc2c(CO)[nH]ccc2cc1=O,C11H11NO3,"InChI=1S/C11H11NO3/c1-15-11-5-8-7(4-10(11)14)2-3-12-9(8)6-13/h2-5,12-13H,6H2,1H3",205.20994,-4.976962325645,-1.2462814352900002,3.730680890355,8.116287698710723
000001385,CC(OC(=O)c1cc(ccc1Cl)NC(=O)C1=C(C)OCCS1)C,C16H18ClNO4S,"InChI=1S/C16H18ClNO4S/c1-9(2)22-16(20)12-8-11(4-5-13(12)17)18-15(19)14-10(3)21-6-7-23-14/h4-5,8-9H,6-7H2,1-3H3,(H,18,19)",355.83642,-5.632756705349999,-1.1673684186450002,4.465388286704999,7.456171119175914
000001387,O=c1sn(c2c1cc(cc2)S(=O)(=O)N)C,C8H8N2O3S2,"InChI=1S/C8H8N2O3S2/c1-10-7-3-2-5(15(9,12)13)4-6(7)8(11)14-10/h2-4H,1H3,(H2,9,12,13)",244.29072,-6.076302281665,-1.9156815075200004,4.160620774144999,6.222473350707257
000001388,CN1CCC(=CC1)c1ccccc1,C12H15N,"InChI=1S/C12H15N/c1-13-9-7-12(8-10-13)11-5-3-2-4-6-11/h2-7H,8-10H2,1H3",173.2542,-5.58377621226,-0.07891301664500006,5.504863195615,0.7726553865792952
000001389,O=C1N(C)c2c(C1=O)cc(cc2)S(=O)(=O)N1CCCC1COc1ccccc1,C20H20N2O5S,"InChI=1S/C20H20N2O5S/c1-21-18-10-9-16(12-17(18)19(23)20(21)24)28(25,26)22-11-5-6-14(22)13-27-15-7-3-2-4-8-15/h2-4,7-10,12,14H,5-6,11,13H2,1H3",400.4482,-5.853168924255001,-2.91706047736,2.9361084468950005,5.598300867639842
000001390,Cn1cncc1,C4H6N2,"InChI=1S/C4H6N2/c1-6-3-2-5-4-6/h2-4H,1H3",82.10384,-5.918476248375,0.5741602245550004,6.49263647293,4.037427011806777
000001391,OCC1OC(C(C1O)O)n1cnc2c1nc(=O)n(c2N)C,C11H15N5O5,"InChI=1S/C11H15N5O5/c1-15-8(12)5-9(14-11(15)20)16(3-13-5)10-7(19)6(18)4(2-17)21-10/h3-4,6-7,10,17-19H,2,12H2,1H3",297.2673,-5.47493067206,-1.0639651554550005,4.410965516605,6.770140248812133
000001394,CCCCCCCCC=CCCCCCCCC(=O)OCC(OC(=O)C)CO,C23H42O5,"InChI=1S/C23H42O5/c1-3-4-5-6-7-8-9-10-11-12-13-14-15-16-17-18-23(26)27-20-22(19-24)28-21(2)25/h10-11,22,24H,3-9,12-20H2,1-2H3",398.57658,-6.3130413316,-0.19864311086500042,6.114398220735,2.8970684046278574
000001400,Cc1ccc(cc1)c1nn(c2c1c(N)ncn2)C(C)(C)C,C16H19N5,"InChI=1S/C16H19N5/c1-10-5-7-11(8-6-10)13-12-14(17)18-9-19-15(12)21(20-13)16(2,3)4/h5-9H,1-4H3,(H2,17,18,19)",281.35556,-5.7143908605,-0.8898122911349997,4.824578569365,3.0279490157963362
000001403,CCN(C(C(=O)N1c2ccccc2Sc2c1cccc2)C)CC,C19H22N2OS,"InChI=1S/C19H22N2OS/c1-4-20(5-2)14(3)19(22)21-15-10-6-8-12-17(15)23-18-13-9-7-11-16(18)21/h6-14H,4-5H2,1-3H3",326.45578,-5.53479571917,-0.7020537342899997,4.83274198488,2.8275264631633426
000001404,OC(=O)CCC(C(=O)O)NC(=O)c1ccc(cc1)C(C(=O)O)Cc1ccc2c(c1)c(=O)nc([nH]2)N,C23H22N4O8,"InChI=1S/C23H22N4O8/c24-23-26-16-6-1-11(10-15(16)20(31)27-23)9-14(21(32)33)12-2-4-13(5-3-12)19(30)25-17(22(34)35)7-8-18(28)29/h1-6,10,14,17H,7-9H2,(H,25,30)(H,28,29)(H,32,33)(H,34,35)(H3,24,26,27,31)",482.44278,-6.39467548675,-1.4884627622349997,4.906212724515,11.647609587306787
000001405,C#CCN(c1ccc(cc1)C(=O)NC(C(=O)O)CCC(=O)O)Cc1ccc2c(c1)c(=O)nc([nH]2)N,C24H23N5O6,"InChI=1S/C24H23N5O6/c1-2-11-29(13-14-3-8-18-17(12-14)22(33)28-24(25)27-18)16-6-4-15(5-7-16)21(32)26-19(23(34)35)9-10-20(30)31/h1,3-8,12,19H,9-11,13H2,(H,26,32)(H,30,31)(H,34,35)(H3,25,27,28,33)",477.46932,-5.52935344216,-1.24083915828,4.28851428388,1.8793210187017013
000001406,CCCCCC=CC=CC(CC=CCC=CCCCC(=O)O)O,C20H32O3,"InChI=1S/C20H32O3/c1-2-3-4-5-7-10-13-16-19(21)17-14-11-8-6-9-12-15-18-20(22)23/h6-7,9-11,13-14,16,19,21H,2-5,8,12,15,17-18H2,1H3,(H,22,23)",320.46628,-5.858611201265,-0.5279008699699999,5.330710331295,4.770445462076366
000001407,CCCCCC=CCC1OC1CC=CCC=CCCCC(=O)O,C20H32O3,"InChI=1S/C20H32O3/c1-2-3-4-5-9-12-15-18-19(23-18)16-13-10-7-6-8-11-14-17-20(21)22/h6,8-10,12-13,18-19H,2-5,7,11,14-17H2,1H3,(H,21,22)",320.46628,-6.53617468901,0.054422770100000406,6.5905974591100005,4.637473210066663
000001409,CCCCCC(C=CC1OC(=O)CC(C1CC=CCCCC(=O)O)O)O,C20H32O6,"InChI=1S/C20H32O6/c1-2-3-6-9-15(21)12-13-18-16(17(22)14-20(25)26-18)10-7-4-5-8-11-19(23)24/h4,7,12-13,15-18,21-22H,2-3,5-6,8-11,14H2,1H3,(H,23,24)",368.46448,-6.876317002135,-0.2557870194699996,6.620529982665,1.3628808092731368
000001411,CCCCCc1cc(O)c2c(c1)OC(C1C2CC(=CC1)C(=O)O)(C)C,C21H28O4,"InChI=1S/C21H28O4/c1-4-5-6-7-13-10-17(22)19-15-12-14(20(23)24)8-9-16(15)21(2,3)25-18(19)11-13/h8,10-11,15-16,22H,4-7,9,12H2,1-3H3,(H,23,24)",344.44462,-5.50758433412,-0.8000147204700001,4.70756961365,5.095421583611998
000001412,OCCCCCC=CCC(C=CC=CCC=CCCCC(=O)O)O,C20H32O4,"InChI=1S/C20H32O4/c21-18-14-10-6-5-8-12-16-19(22)15-11-7-3-1-2-4-9-13-17-20(23)24/h2-4,7-8,11-12,15,19,21-22H,1,5-6,9-10,13-14,16-18H2,(H,23,24)",336.46568,-5.96473560296,-0.6830057647550003,5.281729838205,5.075918994856005
000001413,CCCCCC=CCC(C=CC=CCC=CCCCC(=O)O)O,C20H32O3,"InChI=1S/C20H32O3/c1-2-3-4-5-10-13-16-19(21)17-14-11-8-6-7-9-12-15-18-20(22)23/h7-11,13-14,17,19,21H,2-6,12,15-16,18H2,1H3,(H,22,23)",320.46628,-5.940245356415,-0.6585155182099998,5.281729838205,4.3544779811992385