mol_id,SMILES,formula,inchi,mass,HOMO(eV),LUMO(eV),GAP(eV),dipole_moment
000004078,CN1CCCCC1CCN1c2ccccc2Sc2c1cc(cc2)S(=O)C,C21H26N2OS2,"InChI=1S/C21H26N2OS2/c1-22-13-6-5-7-16(22)12-14-23-18-8-3-4-9-20(18)25-21-11-10-17(26(2)24)15-19(21)23/h3-4,8-11,15-16H,5-7,12-14H2,1-2H3",386.57394,-4.82729970787,-0.8435529365500001,3.98374677132,1.8994766685034592
000004079,O=C1CCC2(C(C1)CCC1C2CCC2(C1CCC2(C)O)C)C,C20H32O2,"InChI=1S/C20H32O2/c1-18-9-6-14(21)12-13(18)4-5-15-16(18)7-10-19(2)17(15)8-11-20(19,3)22/h13,15-17,22H,4-12H2,1-3H3",304.46688,-6.24773400748,-0.23401791142999961,6.0137160960500005,3.8649145570089902
000004080,C#CC1(O)CCC2C1(C)CCC1C2CCc2c1ccc(c2)OC,C21H26O2,"InChI=1S/C21H26O2/c1-4-21(22)12-10-19-18-7-5-14-13-15(23-3)6-8-16(14)17(18)9-11-20(19,21)2/h1,6,8,13,17-19,22H,5,7,9-12H2,2-3H3",310.42994,-5.548401411695,0.1034032631899997,5.651804674885,3.0451943317361536
000004081,CN1CC(CC2C1Cc1cn(c3c1c2ccc3)C)CS(=O)(=O)N(C)C,C19H27N3O2S,"InChI=1S/C19H27N3O2S/c1-20(2)25(23,24)12-13-8-16-15-6-5-7-17-19(15)14(11-22(17)4)9-18(16)21(3)10-13/h5-7,11,13,16,18H,8-10,12H2,1-4H3",361.50158,-5.0395485112600005,0.005442277010000218,5.044990788270001,5.225613343019363
000004084,C=NC(c1ccccc1)C(=O)NC1C(=O)N2C1SC(C2C(=O)O)(C)C,C17H19N3O4S,"InChI=1S/C17H19N3O4S/c1-17(2)12(16(23)24)20-14(22)11(15(20)25-17)19-13(21)10(18-3)9-7-5-4-6-8-9/h4-8,10-12,15H,3H2,1-2H3,(H,19,21)(H,23,24)",361.41546,-6.413723456285,-1.2517237123000005,5.161999743985,7.069381771304617
000004085,OCC1OC(Oc2cccc(c2)[N+](=O)[O-])C(C(C1O)O)O,C12H15NO8,"InChI=1S/C12H15NO8/c14-5-8-9(15)10(16)11(17)12(21-8)20-7-3-1-2-6(4-7)13(18)19/h1-4,8-12,14-17H,5H2",301.2494,-6.976999126820001,-2.4054864384200005,4.5715126884,5.4922446388881845
000004086,OC(c1cc(O)cc(c1)O)CNC(C)C,C11H17NO3,"InChI=1S/C11H17NO3/c1-7(2)12-6-11(15)8-3-9(13)5-10(14)4-8/h3-5,7,11-15H,6H2,1-2H3",211.25758,-5.7606502150850005,0.06258618561500029,5.823236400700001,2.8600601948305213
000004087,CC(C(c1cccc(c1)O)O)N,C9H13NO2,"InChI=1S/C9H13NO2/c1-6(10)9(12)7-3-2-4-8(11)5-7/h2-6,9,11-12H,10H2,1H3",167.20502,-5.962014464455,-0.2557870194699996,5.706227444985,1.1596671271593413
000004088,CC(=O)OC1CCC2C1(C)CCC1C2CCC2C1(C)C(=CC(=O)C2)C,C22H32O3,"InChI=1S/C22H32O3/c1-13-11-16(24)12-15-5-6-17-18-7-8-20(25-14(2)23)21(18,3)10-9-19(17)22(13,15)4/h11,15,17-20H,5-10,12H2,1-4H3",344.48768,-6.147051882795,-1.13199361808,5.015058264715,5.02486168481611
000004089,CCCCCCC(=O)OC1CCC2C1(C)CCC1C2CCC2C1(C)C(=CC(=O)C2)C,C27H42O3,"InChI=1S/C27H42O3/c1-5-6-7-8-9-25(29)30-24-13-12-22-21-11-10-19-17-20(28)16-18(2)27(19,4)23(21)14-15-26(22,24)3/h16,19,21-24H,5-15,17H2,1-4H3",414.62058,-6.149773021300001,-1.1347147565849998,5.015058264715001,4.819852250629058
000004090,O=C(OCc1ccccc1)NCC1CN(C)C2C(C1)c1cccc3c1c(C2)cn3C,C25H29N3O2,"InChI=1S/C25H29N3O2/c1-27-14-18(13-26-25(29)30-16-17-7-4-3-5-8-17)11-21-20-9-6-10-22-24(20)19(12-23(21)27)15-28(22)2/h3-10,15,18,21,23H,11-14,16H2,1-2H3,(H,26,29)",403.51666,-4.98512574116,-0.10612440169500026,4.879001339465,3.384235440107115
000004093,CC(=C)C(=O)O,C4H6O2,"InChI=1S/C4H6O2/c1-3(2)4(5)6/h1H2,2H3,(H,5,6)",86.08924,-7.371564210044999,-0.5986504711,6.772913738944999,4.251401626324311
000004095,CCC(=O)C(c1ccccc1)(c1ccccc1)CC(N(C)C)C,C21H27NO,"InChI=1S/C21H27NO/c1-5-20(23)21(16-17(2)22(3)4,18-12-8-6-9-13-18)19-14-10-7-11-15-19/h6-15,17H,5,16H2,1-4H3",309.44518,-5.83412095472,-0.6149773021299998,5.219143652590001,2.5756920922387057
000004096,COP(=O)(SC)N,C2H8NO2PS,"InChI=1S/C2H8NO2PS/c1-5-6(3,4)7-2/h1-2H3,(H2,3,4)",141.129181,-6.783798292965,0.3374211746200002,7.121219467585,1.5580632202767
000004098,CN(CCN(c1ccccn1)Cc1cccs1)C,C14H19N3S,"InChI=1S/C14H19N3S/c1-16(2)9-10-17(12-13-6-5-11-18-13)14-7-3-4-8-15-14/h3-8,11H,9-10,12H2,1-2H3",261.38576,-5.341594885315001,-0.43810329930500025,4.90349158601,1.2196589964141615
000004099,CCC1(CC)C(=O)NC(=O)N(C1=O)C,C9H14N2O3,"InChI=1S/C9H14N2O3/c1-4-9(5-2)6(12)10-8(14)11(3)7(9)13/h4-5H2,1-3H3,(H,10,12,14)",198.21906,-7.2110170382500005,-1.1129456485449998,6.098071389705001,0.9120940670172129
000004100,CC(=O)N=c1sc(nn1C)S(=O)(=O)N,C5H8N4O3S2,"InChI=1S/C5H8N4O3S2/c1-3(10)7-4-9(2)8-5(13-4)14(6,11)12/h1-2H3,(H2,6,11,12)",236.27202,-6.4763096418999995,-1.9102392305100002,4.566070411389999,4.3419352540834835
000004101,C1N2CN3CN1CN(C2)C3,C6H12N4,InChI=1S/C6H12N4/c1-7-2-9-4-8(1)5-10(3-7)6-9/h1-6H2,140.18628,-5.78514046163,1.9320083385500002,7.71714880018,0.00035888856209135444
000004103,COc1cccc(c1C(=O)NC1C(=O)N2C1SC(C2C(=O)O)(C)C)OC,C17H20N2O6S,"InChI=1S/C17H20N2O6S/c1-17(2)12(16(22)23)19-14(21)11(15(19)26-17)18-13(20)10-8(24-3)6-5-7-9(10)25-4/h5-7,11-12,15H,1-4H3,(H,18,20)(H,22,23)",380.4155,-5.997389265020001,-1.1075033715349996,4.889885893485001,4.393669604161651
000004105,CSCCC(C(=O)NC(C(=O)NC(C(=O)O)Cc1ccccc1)CC(C)C)N,C20H31N3O4S,"InChI=1S/C20H31N3O4S/c1-13(2)11-16(22-18(24)15(21)9-10-28-3)19(25)23-17(20(26)27)12-14-7-5-4-6-8-14/h4-8,13,15-17H,9-12,21H2,1-3H3,(H,22,24)(H,23,25)(H,26,27)",409.54284,-5.93752421791,-0.42993988379000037,5.50758433412,6.61022041265955
000004106,CSc1ccc2c(c1)C(Cc1c(S2)cccc1)N1CCN(CC1)C,C20H24N2S2,"InChI=1S/C20H24N2S2/c1-21-9-11-22(12-10-21)18-13-15-5-3-4-6-19(15)24-20-8-7-16(23-2)14-17(18)20/h3-8,14,18H,9-13H2,1-2H3",356.54796,-5.036827372755,-0.42449760678000015,4.612329765975,2.461305644805821
000004107,COc1ccccc1OCC(COC(=O)N)O,C11H15NO5,"InChI=1S/C11H15NO5/c1-15-9-4-2-3-5-10(9)16-6-8(13)7-17-11(12)14/h2-5,8,13H,6-7H2,1H3,(H2,12,14)",241.2405,-5.64364125937,0.05170163159499985,5.695342890965,3.255194269578853
000004109,CNC(=O)ON=C(SC)C,C5H10N2O2S,"InChI=1S/C5H10N2O2S/c1-4(10-3)7-9-5(8)6-2/h1-3H3,(H,6,8)",162.2101,-5.945687633425,-0.04353821607999997,5.902149417345,3.086747362880707
000004110,CCCCCC(CC=CC=CC(=O)OC(C)C)(OC)C,C17H30O3,"InChI=1S/C17H30O3/c1-6-7-10-13-17(4,19-5)14-11-8-9-12-16(18)20-15(2)3/h8-9,11-12,15H,6-7,10,13-14H2,1-5H3",282.4183,-6.24773400748,-1.4449245461549998,4.802809461325,3.190560714551284
000004111,COC(CCCC(CC=CC(=CC(=O)O)C)C)(C)C,C16H28O3,"InChI=1S/C16H28O3/c1-13(10-7-11-16(3,4)19-5)8-6-9-14(2)12-15(17)18/h6,9,12-13H,7-8,10-11H2,1-5H3,(H,17,18)",268.39172,-6.40011776376,-1.03947490891,5.36064285485,3.2518181387091745
000004112,OC(=O)CCC(C(=O)O)NC(=O)c1ccc(cc1)N(Cc1cnc2c(n1)c(N)nc(n2)N)C,C20H22N8O5,"InChI=1S/C20H22N8O5/c1-28(9-11-8-23-17-15(24-11)16(21)26-20(22)27-17)12-4-2-10(3-5-12)18(31)25-13(19(32)33)6-7-14(29)30/h2-5,8,13H,6-7,9H2,1H3,(H,25,31)(H,29,30)(H,32,33)(H4,21,22,23,26,27)",454.43928,-5.56744938123,-1.89391239948,3.6735369817500003,7.59082830446118
000004113,CON,CH5NO,"InChI=1S/CH5NO/c1-3-2/h2H2,1H3",47.0565,-6.680395029775,2.3429002528049994,9.02329528258,0.44261963651198305
000004114,COc1c2oc(=O)ccc2cc2c1occ2,C12H8O4,"InChI=1S/C12H8O4/c1-14-12-10-8(4-5-15-10)6-7-2-3-9(13)16-11(7)12/h2-6H,1H3",216.18952,-5.68717947545,-1.7115961196449998,3.975583355805,6.160458365677995
000004115,COc1ccc(cc1)C(C(Cl)(Cl)Cl)c1ccc(cc1)OC,C16H15Cl3O2,"InChI=1S/C16H15Cl3O2/c1-20-13-7-3-11(4-8-13)15(16(17,18)19)12-5-9-14(21-2)10-6-12/h3-10,15H,1-2H3",345.6481,-5.66541036741,-0.5632756705349999,5.102134696875,2.0801570735341115
000004116,COC(C(Cl)Cl)(F)F,C3H4Cl2F2O,"InChI=1S/C3H4Cl2F2O/c1-8-3(6,7)2(4)5/h2H,1H3",164.9660664,-8.274982193705,-0.12789350973499936,8.14708868397,2.423509024937188
000004117,CNC(Cc1ccccc1OC)C,C11H17NO,"InChI=1S/C11H17NO/c1-9(12-2)8-10-6-4-5-7-11(10)13-3/h4-7,9,12H,8H2,1-3H3",179.25878,-5.499420918605,0.3156520665800002,5.815072985185,1.4030058348428205
000004119,COc1cc(C)c2c(c1)oc(cc2=O)c1ccccc1,C17H14O3,"InChI=1S/C17H14O3/c1-11-8-13(19-2)9-16-17(11)14(18)10-15(20-16)12-6-4-3-5-7-12/h3-10H,1-2H3",266.29126,-6.08990797419,-1.46397251569,4.6259354585,3.100621032358034
000004121,ClCC1Nc2cc(Cl)c(cc2S(=O)(=O)N1C)S(=O)(=O)N,C9H11Cl2N3O4S2,"InChI=1S/C9H11Cl2N3O4S2/c1-14-9(4-10)13-6-2-5(11)7(19(12,15)16)3-8(6)20(14,17)18/h2-3,9,13H,4H2,1H3,(H2,12,15,16)",360.23734,-6.528011273495,-1.57281805589,4.955193217605,7.86180419898111
000004122,COC(=O)Nc1nc2c([nH]1)cc(cc2)C(=O)c1cccs1,C14H11N3O3S,"InChI=1S/C14H11N3O3S/c1-20-14(19)17-13-15-9-5-4-8(7-10(9)16-13)12(18)11-3-2-6-21-11/h2-7H,1H3,(H2,15,16,17,19)",301.32044,-5.793303877145,-1.5537700863549997,4.23953379079,4.282671486132225
000004124,COC1OC(CO)C(C(C1O)OC1OC(CO)C(C(C1NC(=O)C)O)O)O,C15H27NO11,"InChI=1S/C15H27NO11/c1-5(19)16-8-11(22)9(20)6(3-17)25-14(8)27-13-10(21)7(4-18)26-15(24-2)12(13)23/h6-15,17-18,20-23H,3-4H2,1-2H3,(H,16,19)",397.37498,-6.43277142582,0.06258618561500029,6.495357611435001,5.401077882114829
000004125,CCCCCC=CCC=CCC=CCC=CCCCCP(=O)(OC)F,C21H36FO2P,"InChI=1S/C21H36FO2P/c1-3-4-5-6-7-8-9-10-11-12-13-14-15-16-17-18-19-20-21-25(22,23)24-2/h7-8,10-11,13-14,16-17H,3-6,9,12,15,18-21H2,1-2H3",370.4815042,-6.266781977015,0.24762360395499972,6.51440558097,2.6141348128333015
000004127,COC(=O)C(c1ccc(c(c1)F)c1ccccc1)C,C16H15FO2,"InChI=1S/C16H15FO2/c1-11(16(18)19-2)13-8-9-14(15(17)10-13)12-6-4-3-5-7-12/h3-11H,1-2H3",258.2875032,-6.212359206915,-0.5687179475450002,5.64364125937,1.1422713780595222
000004128,CCCCCC=CCC=CCC=CCCCCCP(=O)(OC)F,C19H34FO2P,"InChI=1S/C19H34FO2P/c1-3-4-5-6-7-8-9-10-11-12-13-14-15-16-17-18-19-23(20,21)22-2/h7-8,10-11,13-14H,3-6,9,12,15-19H2,1-2H3",344.4442242,-6.190590098875,0.3591902826600002,6.549780381535,2.4627807323359097
000004129,CCC=CCC=CCC=CCCCCCCCCP(=O)(OC)F,C19H34FO2P,"InChI=1S/C19H34FO2P/c1-3-4-5-6-7-8-9-10-11-12-13-14-15-16-17-18-19-23(20,21)22-2/h4-5,7-8,10-11H,3,6,9,12-19H2,1-2H3",344.4442242,-6.1797055448550005,0.3782382521949996,6.55794379705,2.482514228613403
000004130,COP(=S)(Oc1ccc(cc1)[N+](=O)[O-])OC,C8H10NO5PS,"InChI=1S/C8H10NO5PS/c1-12-15(16,13-2)14-8-5-3-7(4-6-8)9(10)11/h3-6H,1-2H3",263.207461,-7.074960113,-2.424534407955,4.650425705045,3.6914454089265627
000004131,OC1C(O)C(OC1n1cnc2c1ncnc2N)COP(=O)(O)C,C11H16N5O6P,"InChI=1S/C11H16N5O6P/c1-23(19,20)21-2-5-7(17)8(18)11(22-5)16-4-15-6-9(12)13-3-14-10(6)16/h3-5,7-8,11,17-18H,2H2,1H3,(H,19,20)(H2,12,13,14)",345.248401,-6.353858409175,-1.1673684186450002,5.18648999053,5.223663961142696
000004132,COc1ccc(cc1)C12Oc3c(C2(O)C(C(C1c1ccccc1)C(=O)OC)O)c(OC)cc(c3)OC,C28H28O8,"InChI=1S/C28H28O8/c1-32-18-12-10-17(11-13-18)28-23(16-8-6-5-7-9-16)22(26(30)35-4)25(29)27(28,31)24-20(34-3)14-19(33-2)15-21(24)36-28/h5-15,22-23,25,29,31H,1-4H3",492.51712,-5.53479571917,-0.17415286431999988,5.36064285485,3.5150673521251337
000004133,COC(=O)c1ccccc1O,C8H8O3,"InChI=1S/C8H8O3/c1-11-8(10)6-4-2-3-5-7(6)9/h2-5,9H,1H3",152.14732,-6.19875351439,-0.7918513049550002,5.406902209435,2.4243960571647527
000004138,OC(=O)C(Cc1ccc(c(c1)O)O)(N)C,C10H13NO4,"InChI=1S/C10H13NO4/c1-10(11,9(14)15)5-6-2-3-7(12)8(13)4-6/h2-4,12-13H,5,11H2,1H3,(H,14,15)",211.21452,-5.7688136305999995,-0.1714317258150002,5.597381904784999,4.347007753612822
000004140,CCC(NC(=O)C1CN(C)C2C(=C1)c1cccc3c1c(C2)c[nH]3)CO,C20H25N3O2,"InChI=1S/C20H25N3O2/c1-3-14(11-24)22-20(25)13-7-16-15-5-4-6-17-19(15)12(9-21-17)8-18(16)23(2)10-13/h4-7,9,13-14,18,21,24H,3,8,10-11H2,1-2H3,(H,22,25)",339.4314,-4.563349272885,-1.717038396655,2.8463108762299996,2.034768408477977
000004142,ONC(=O)c1ccc(cc1)CCSc1ccccc1,C15H15NO2S,"InChI=1S/C15H15NO2S/c17-15(16-18)13-8-6-12(7-9-13)10-11-19-14-4-2-1-3-5-14/h1-9,18H,10-11H2,(H,16,17)",273.3501,-6.092629112695,-1.053080601435,5.03954851126,4.273269233405497
000004143,ONC(=O)Cc1ccc(cc1)NS(=O)(=O)c1ccc2c(c1)cccc2,C18H16N2O4S,"InChI=1S/C18H16N2O4S/c21-18(19-22)11-13-5-8-16(9-6-13)20-25(23,24)17-10-7-14-3-1-2-4-15(14)12-17/h1-10,12,20,22H,11H2,(H,19,21)",356.39564,-5.956572187445,-1.8449319063900003,4.111640281055,7.040103515733984
000004144,ONC(=O)CCc1ccc(cc1)NS(=O)(=O)c1ccccc1,C15H16N2O4S,"InChI=1S/C15H16N2O4S/c18-15(16-19)11-8-12-6-9-13(10-7-12)17-22(20,21)14-4-2-1-3-5-14/h1-7,9-10,17,19H,8,11H2,(H,16,18)",320.36354,-5.81779412369,-1.3469635599750003,4.470830563714999,3.6518646890778967
000004145,ONC(=O)C=Cc1ccc(cc1)NS(=O)(=O)c1ccc(cc1)c1ccccc1,C21H18N2O4S,"InChI=1S/C21H18N2O4S/c24-21(22-25)15-8-16-6-11-19(12-7-16)23-28(26,27)20-13-9-18(10-14-20)17-4-2-1-3-5-17/h1-15,23,25H,(H,22,24)",394.44362,-5.76337135359,-1.8095571058250002,3.953814247765,6.610320646885293
000004146,ONC(=O)C#Cc1ccc(cc1)NS(=O)(=O)c1ccc(cc1)c1ccccc1,C21H16N2O4S,"InChI=1S/C21H16N2O4S/c24-21(22-25)15-8-16-6-11-19(12-7-16)23-28(26,27)20-13-9-18(10-14-20)17-4-2-1-3-5-17/h1-7,9-14,23,25H,(H,22,24)",392.42774,-5.972899018475,-1.8340473523699998,4.138851666105,6.862528582613627
000004147,ONC(=O)C=CC=CCCCC(=O)c1ccc(cc1)c1ccccc1,C21H21NO3,"InChI=1S/C21H21NO3/c23-20(11-7-2-1-3-8-12-21(24)22-25)19-15-13-18(14-16-19)17-9-5-4-6-10-17/h1,3-6,8-10,12-16,25H,2,7,11H2,(H,22,24)",335.39634,-5.956572187445,-1.6326831029999997,4.323889084445001,7.053966263454553
000004148,ONC(=O)CCCCCCC(=O)c1ccc(cc1)N1CCN(CC1)c1ccccc1,C24H31N3O3,"InChI=1S/C24H31N3O3/c28-23(10-6-1-2-7-11-24(29)25-30)20-12-14-22(15-13-20)27-18-16-26(17-19-27)21-8-4-3-5-9-21/h3-5,8-9,12-15,30H,1-2,6-7,10-11,16-19H2,(H,25,29)",409.52124,-5.194653406045,-1.0721285709700004,4.122524835075,3.383706639445122
000004149,ONC(=O)CCCCCN(Cc1ccc2c(c1)cccc2)C,C18H24N2O2,"InChI=1S/C18H24N2O2/c1-20(12-6-2-3-9-18(21)19-22)14-15-10-11-16-7-4-5-8-17(16)13-15/h4-5,7-8,10-11,13,22H,2-3,6,9,12,14H2,1H3,(H,19,21)",300.39536,-5.744323384055001,-0.95239847675,4.791924907305001,2.6412641391625336
000004150,ONC(=O)CCCCSCC(=O)c1ccc(cc1)c1ccccc1,C19H21NO3S,"InChI=1S/C19H21NO3S/c21-18(14-24-13-5-4-8-19(22)20-23)17-11-9-16(10-12-17)15-6-2-1-3-7-15/h1-3,6-7,9-12,23H,4-5,8,13-14H2,(H,20,22)",343.43994,-6.070860004655,-1.5973083024349997,4.47355170222,4.8285585678777885
000004151,ONC(=O)C=Cc1ccc(cc1)NS(=O)(=O)c1ccccc1,C15H14N2O4S,"InChI=1S/C15H14N2O4S/c18-15(16-19)11-8-12-6-9-13(10-7-12)17-22(20,21)14-4-2-1-3-5-14/h1-11,17,19H,(H,16,18)",318.34766,-5.798746154155,-1.7959514133,4.002794740855,6.0224530422327085
000004152,ONC(=O)C(=Cc1ccc(cc1)NS(=O)(=O)c1ccccc1)C,C16H16N2O4S,"InChI=1S/C16H16N2O4S/c1-12(16(19)17-20)11-13-7-9-14(10-8-13)18-23(21,22)15-5-3-2-4-6-15/h2-11,18,20H,1H3,(H,17,19)",332.37424,-5.864053478275,-1.4394822691449995,4.424571209130001,3.9192353511731084
000004153,ONC(=O)C=Cc1ccc(cc1)N(S(=O)(=O)c1ccccc1)C,C16H16N2O4S,"InChI=1S/C16H16N2O4S/c1-18(23(21,22)15-5-3-2-4-6-15)14-10-7-13(8-11-14)9-12-16(19)17-20/h2-12,20H,1H3,(H,17,19)",332.37424,-5.771534769105,-1.8095571058250002,3.96197766328,4.821646424249397
000004154,ONC(=O)C=Cc1ccc(cc1)NS(=O)(=O)c1ccc(c(c1)OC)OC,C17H18N2O6S,"InChI=1S/C17H18N2O6S/c1-24-15-9-8-14(11-16(15)25-2)26(22,23)19-13-6-3-12(4-7-13)5-10-17(20)18-21/h3-11,19,21H,1-2H3,(H,18,20)",378.39962,-5.7143908605,-1.7442497817050002,3.970141078795,4.410202207425301
000004156,COS(=O)(=O)C,C2H6O3S,"InChI=1S/C2H6O3S/c1-5-6(2,3)4/h1-2H3",110.13224,-7.806946370845,0.6095350251200005,8.416481395965,2.997441872231887
000004158,COC(=O)C(c1ccccc1)C1CCCCN1,C14H19NO2,"InChI=1S/C14H19NO2/c1-17-14(16)13(11-7-3-2-4-8-11)12-9-5-6-10-15-12/h2-4,7-8,12-13,15H,5-6,9-10H2,1H3",233.30616,-5.74704452256,-0.2748349890049999,5.4722095335550005,1.9758518733432422
000004159,OCC(=O)C1(O)CCC2C1(C)CC(O)C1C2CC(C2=CC(=O)C=CC12C)C,C22H30O5,"InChI=1S/C22H30O5/c1-12-8-14-15-5-7-22(27,18(26)11-23)21(15,3)10-17(25)19(14)20(2)6-4-13(24)9-16(12)20/h4,6,9,12,14-15,17,19,23,25,27H,5,7-8,10-11H2,1-3H3",374.4706,-5.67085264442,-2.2612660976549996,3.4095865467650004,4.598681613469343
000004160,O=C1CCC2(C(=C1)CCC1C2CCC2(C1CCC2(C)O)C)C,C20H30O2,"InChI=1S/C20H30O2/c1-18-9-6-14(21)12-13(18)4-5-15-16(18)7-10-19(2)17(15)8-11-20(19,3)22/h12,15-17,22H,4-11H2,1-3H3",302.451,-6.22596489944,-1.1455993106050002,5.080365588835,4.069258026164844
000004162,CCC1(CC)C(=O)NCC(C1=O)C,C10H17NO2,"InChI=1S/C10H17NO2/c1-4-10(5-2)8(12)7(3)6-11-9(10)13/h7H,4-6H2,1-3H3,(H,11,13)",183.24748,-6.60148201313,-0.7374285348549998,5.864053478275,3.074814455952912
000004163,CCC(NC(=O)C1CN(C)C2C(=C1)c1cccc3c1c(C2)cn3C)CO,C21H27N3O2,"InChI=1S/C21H27N3O2/c1-4-15(12-25)22-21(26)14-8-17-16-6-5-7-18-20(16)13(10-23(18)2)9-19(17)24(3)11-14/h5-8,10,14-15,19,25H,4,9,11-12H2,1-3H3,(H,22,26)",353.45798,-5.07220217332,-0.5959293325950004,4.476272840725,3.21344096768324
000004164,OC(=O)Cc1ccc2c(c1)N(C)c1c(S2)cccc1,C15H13NO2S,"InChI=1S/C15H13NO2S/c1-16-11-4-2-3-5-13(11)19-14-7-6-10(8-12(14)16)9-15(17)18/h2-8H,9H2,1H3,(H,17,18)",271.33422,-5.14295177445,-0.742870811865,4.400080962585,3.3400478076520104
000004165,Cc1cc2CCCS(=O)(=O)c2cc1S(=O)(=O)N,C10H13NO4S2,"InChI=1S/C10H13NO4S2/c1-7-5-8-3-2-4-16(12,13)10(8)6-9(7)17(11,14)15/h5-6H,2-4H2,1H3,(H2,11,14,15)",275.34452,-7.197411345725,-1.5320009783149997,5.665410367410001,4.751652558183731
000004167,CN1CCCC(C1)CC1c2ccccc2Sc2c1cccc2,C20H23NS,"InChI=1S/C20H23NS/c1-21-12-6-7-15(14-21)13-18-16-8-2-4-10-19(16)22-20-11-5-3-9-17(18)20/h2-5,8-11,15,18H,6-7,12-14H2,1H3",309.46832,-5.232749345115,-0.47347809987000034,4.7592712452449994,1.6072678515922603
000004168,CCN(CCNC(=O)c1cc(Cl)c(cc1OC)N)CC,C14H22ClN3O2,"InChI=1S/C14H22ClN3O2/c1-4-18(5-2)7-6-17-14(19)10-8-11(15)12(16)9-13(10)20-3/h8-9H,4-7,16H2,1-3H3,(H,17,19)",299.79638,-5.406902209435,-0.09796098618000038,5.308941223254999,3.1015610917924863
000004169,COCC(N(c1c(C)cccc1CC)C(=O)CCl)C,C15H22ClNO2,"InChI=1S/C15H22ClNO2/c1-5-13-8-6-7-11(2)15(13)17(14(18)9-16)12(3)10-19-4/h6-8,12H,5,9-10H2,1-4H3",283.79368,-6.4463771183450005,-0.43810329930500025,6.00827381904,4.7108411276821895
000004170,CC1Nc2cc(Cl)c(cc2C(=O)N1c1ccccc1C)S(=O)(=O)N,C16H16ClN3O3S,"InChI=1S/C16H16ClN3O3S/c1-9-5-3-4-6-14(9)20-10(2)19-13-8-12(17)15(24(18,22)23)7-11(13)16(20)21/h3-8,10,19H,1-2H3,(H2,18,22,23)",365.83454,-6.1579364368150005,-1.4748570697100005,4.683079367105,8.417945746935768
000004171,COCCc1ccc(cc1)OCC(CNC(C)C)O,C15H25NO3,"InChI=1S/C15H25NO3/c1-12(2)16-10-14(17)11-19-15-6-4-13(5-7-15)8-9-18-3/h4-7,12,14,16-17H,8-11H2,1-3H3",267.3639,-5.79602501565,-0.07347073963499984,5.722554276015,2.75051693474045
000004173,OCCn1c(C)ncc1[N+](=O)[O-],C6H9N3O3,"InChI=1S/C6H9N3O3/c1-5-7-4-6(9(11)12)8(5)2-3-10/h4,10H,2-3H2,1H3",171.15396,-6.859990171105,-2.3129677292500004,4.547022441855,3.3479071127667206
000004174,O=C(C(c1cccnc1)(C)C)c1cccnc1,C14H14N2O,"InChI=1S/C14H14N2O/c1-14(2,12-6-4-8-16-10-12)13(17)11-5-3-7-15-9-11/h3-10H,1-2H3",226.27376,-6.647741367715,-1.6462887955249998,5.00145257219,1.6179417888790066
000004175,CCC(C(=O)OC1CC(C)C=C2C1C(CCC1CCCC(=O)O1)C(C=C2)C)C,C24H36O4,"InChI=1S/C24H36O4/c1-5-16(3)24(26)28-21-14-15(2)13-18-10-9-17(4)20(23(18)21)12-11-19-7-6-8-22(25)27-19/h9-10,13,15-17,19-21,23H,5-8,11-12,14H2,1-4H3",388.54024,-4.808251738335,-0.9496773382449999,3.8585744000899997,5.505051366269801
000004176,CCOC(=O)C=C(OP(=O)(OC)OC)C,C8H15O6P,"InChI=1S/C8H15O6P/c1-5-13-8(9)6-7(2)14-15(10,11-3)12-4/h6H,5H2,1-4H3",238.174861,-6.7130486918350005,-0.9387927842249999,5.774255907610001,2.4822449229270265
000004177,O=C1Nc2ccc(cc2C2(N(C1)C(C)CO2)c1ccccc1Cl)Cl,C18H16Cl2N2O2,"InChI=1S/C18H16Cl2N2O2/c1-11-10-24-18(13-4-2-3-5-15(13)20)14-8-12(19)6-7-16(14)21-17(23)9-22(11)18/h2-8,11H,9-10H2,1H3,(H,21,23)",363.23784,-5.951129910435,-0.8245049670149998,5.12662494342,1.5520369851691678
000004178,CC(COc1c(C)cccc1C)N,C11H17NO,"InChI=1S/C11H17NO/c1-8-5-4-6-9(2)11(8)13-7-10(3)12/h4-6,10H,7,12H2,1-3H3",179.25878,-6.10623480522,0.03809593906999975,6.1443307442899995,1.0573361001427124
000004180,OCC(C(C(C(CN(C(=S)[S-])C)O)O)O)O.[Na+],C8H16NNaO5S2,"InChI=1S/C8H17NO5S2.Na/c1-9(8(15)16)2-4(11)6(13)7(14)5(12)3-10;/h4-7,10-14H,2-3H2,1H3,(H,15,16);/q;+1/p-1",293.33611,-4.47899397923,-0.91974481469,3.55924916454,11.438465435459864
000004181,OCC(C(C(C(CN(C(=S)S)C)O)O)O)O,C8H17NO5S2,"InChI=1S/C8H17NO5S2/c1-9(8(15)16)2-4(11)6(13)7(14)5(12)3-10/h4-7,10-14H,2-3H2,1H3,(H,15,16)",271.35428,-6.098071389705,-1.0558017399399997,5.042269649765,6.80016019345346
000004183,OCC(c1ccc(c(c1)OC)OS(=O)(=O)O)O,C9H12O7S,"InChI=1S/C9H12O7S/c1-15-9-4-6(7(11)5-10)2-3-8(9)16-17(12,13)14/h2-4,7,10-11H,5H2,1H3,(H,12,13,14)",264.25238,-6.473588503395,-0.6830057647550003,5.7905827386399995,3.577341193154631
000004184,CN1CCN2C(C1)c1ccccc1Cc1c2cccc1,C18H20N2,"InChI=1S/C18H20N2/c1-19-10-11-20-17-9-5-3-7-15(17)12-14-6-2-4-8-16(14)18(20)13-19/h2-9,18H,10-13H2,1H3",264.3648,-4.9960102951800005,-0.046259354584999635,4.949750940595001,1.0458490575240769