mol_id,SMILES,formula,inchi,mass,HOMO(eV),LUMO(eV),GAP(eV),dipole_moment
000001414,CCCCCC(C=CC=CCC=CCCCC(=O)O)O,C17H28O3,"InChI=1S/C17H28O3/c1-2-3-10-13-16(18)14-11-8-6-4-5-7-9-12-15-17(19)20/h5-8,11,14,16,18H,2-4,9-10,12-13,15H2,1H3,(H,19,20)",280.40242,-5.983783572495001,-0.6503521026949999,5.333431469800001,4.568944340077476
000001415,CCCCCC=CCC(C=CC=CCC=CCCCC(=O)O)OO,C20H32O4,"InChI=1S/C20H32O4/c1-2-3-4-5-10-13-16-19(24-23)17-14-11-8-6-7-9-12-15-18-20(21)22/h7-11,13-14,17,19,23H,2-6,12,15-16,18H2,1H3,(H,21,22)",336.46568,-5.853168924255001,-0.6938903187749998,5.159278605480001,5.558360517314435
000001416,CCCCCC1OC1CC=CCCCCCCCC(=O)O,C18H32O3,"InChI=1S/C18H32O3/c1-2-3-10-13-16-17(21-16)14-11-8-6-4-5-7-9-12-15-18(19)20/h8,11,16-17H,2-7,9-10,12-15H2,1H3,(H,19,20)",296.44488,-6.489915334425,0.23129677292499995,6.7212121073499995,5.945380969980057
000001417,CCCc1cc(=O)oc2c1c1OC(C)(C)C=Cc1c1c2C(OC(=O)C)C(C(O1)C)C,C24H28O6,"InChI=1S/C24H28O6/c1-7-8-15-11-17(26)29-23-18(15)22-16(9-10-24(5,6)30-22)21-19(23)20(28-14(4)25)12(2)13(3)27-21/h9-13,20H,7-8H2,1-6H3",412.47552,-5.417786763455,-1.3469635599750003,4.07082320348,7.229088168145759
000001419,CCCc1cc(=O)oc2c1c1OC(C)(C)C=Cc1c1c2C(N=[N+]=[N-])C(C(O1)C)C,C22H25N3O4,"InChI=1S/C22H25N3O4/c1-6-7-13-10-15(26)28-21-16(13)20-14(8-9-22(4,5)29-20)19-17(21)18(24-25-23)11(2)12(3)27-19/h8-12,18H,6-7H2,1-5H3",395.4516,-5.49125750309,-1.4367611306399999,4.05449637245,7.173379997555197
000001420,COCCCCCCCCCCCC(=O)O,C13H26O3,"InChI=1S/C13H26O3/c1-16-12-10-8-6-4-2-3-5-7-9-11-13(14)15/h2-12H2,1H3,(H,14,15)",230.34374,-6.718490968845001,0.23673904993500017,6.955230018780001,5.307005214218091
000001421,CCCc1cc(=O)oc2c1c1OC(C)(C)C=Cc1c1c2C(=O)C(C(O1)C)C,C22H24O5,"InChI=1S/C22H24O5/c1-6-7-13-10-15(23)26-21-16(13)20-14(8-9-22(4,5)27-20)19-17(21)18(24)11(2)12(3)25-19/h8-12H,6-7H2,1-5H3",368.42296,-5.61098759731,-1.4993473162550002,4.111640281055,8.645278262274154
000001422,CCCc1cc(=O)oc2c1c1OC(C)(C)C=Cc1c1c2C(S)C(C(O1)C)C,C22H26O4S,"InChI=1S/C22H26O4S/c1-6-7-13-10-15(23)25-20-16(13)19-14(8-9-22(4,5)26-19)18-17(20)21(27)11(2)12(3)24-18/h8-12,21,27H,6-7H2,1-5H3",386.50444,-5.3579217163449995,-1.4340399921350002,3.9238817242099993,6.5682272561982815
000001423,CCCCCCCNC1CCCC1CCCCCCC(=O)O,C19H37NO2,"InChI=1S/C19H37NO2/c1-2-3-4-7-10-16-20-18-14-11-13-17(18)12-8-5-6-9-15-19(21)22/h17-18,20H,2-16H2,1H3,(H,21,22)",311.50258,-5.815072985185,0.2204122189050004,6.03548520409,3.4596186088230882
000001424,CCCCCC(C=CC=CCCCCCCCC(=O)O)O,C18H32O3,"InChI=1S/C18H32O3/c1-2-3-11-14-17(19)15-12-9-7-5-4-6-8-10-13-16-18(20)21/h7,9,12,15,17,19H,2-6,8,10-11,13-14,16H2,1H3,(H,20,21)",296.44488,-5.831399816215,-0.4408244378099999,5.390575378405,3.712909224835156
000001425,CCCCCC(C=CC=CCC=CCCCCC(=O)O)O,C18H30O3,"InChI=1S/C18H30O3/c1-2-3-11-14-17(19)15-12-9-7-5-4-6-8-10-13-16-18(20)21/h4,6-7,9,12,15,17,19H,2-3,5,8,10-11,13-14,16H2,1H3,(H,20,21)",294.429,-5.864053478275,-0.5333431469800001,5.330710331295,5.315036523576296
000001426,CCCCCC(C=CC=CCCCCCCCC(=O)O)OO,C18H32O4,"InChI=1S/C18H32O4/c1-2-3-11-14-17(22-21)15-12-9-7-5-4-6-8-10-13-16-18(19)20/h7,9,12,15,17,21H,2-6,8,10-11,13-14,16H2,1H3,(H,19,20)",312.44428,-5.95385104894,-0.6013716096049997,5.352479439335,4.29590445087609
000001427,CCCCCC(=O)CCC1C(O)CC(C1CC=CCCCC(=O)O)O,C20H34O5,"InChI=1S/C20H34O5/c1-2-3-6-9-15(21)12-13-17-16(18(22)14-19(17)23)10-7-4-5-8-11-20(24)25/h4,7,16-19,22-23H,2-3,5-6,8-14H2,1H3,(H,24,25)",354.48096,-6.61236656715,-0.2775561275099996,6.33481043964,5.997450982148749
000001428,CCCCCC(CCC1C(O)CC(=O)C1CCCCCCC(=O)O)O,C20H36O5,"InChI=1S/C20H36O5/c1-2-3-6-9-15(21)12-13-17-16(18(22)14-19(17)23)10-7-4-5-8-11-20(24)25/h15-17,19,21,23H,2-14H2,1H3,(H,24,25)",356.49684,-6.40011776376,-0.7319862578450005,5.6681315059149995,3.5895647846436756
000001429,CCCCC(=O)C=CC=CCCCCCCCC(=O)O,C17H28O3,"InChI=1S/C17H28O3/c1-2-3-13-16(18)14-11-9-7-5-4-6-8-10-12-15-17(19)20/h7,9,11,14H,2-6,8,10,12-13,15H2,1H3,(H,19,20)",280.40242,-6.26950311552,-1.5973083024350005,4.6721948130849995,6.156391305337324
000001430,CCCCCC#CCC(C=CC=CC=CC(CCCC(=O)O)O)O,C20H30O4,"InChI=1S/C20H30O4/c1-2-3-4-5-6-9-13-18(21)14-10-7-8-11-15-19(22)16-12-17-20(23)24/h7-8,10-11,14-15,18-19,21-22H,2-5,12-13,16-17H2,1H3,(H,23,24)",334.4498,-5.85589006276,-1.4666936541949998,4.389196408565001,7.263707960615501
000001431,CCCCCC1OC1CC=CCC=CCC=CCCCC(=O)O,C20H32O3,"InChI=1S/C20H32O3/c1-2-3-12-15-18-19(23-18)16-13-10-8-6-4-5-7-9-11-14-17-20(21)22/h4,6-7,9-10,13,18-19H,2-3,5,8,11-12,14-17H2,1H3,(H,21,22)",320.46628,-6.4763096418999995,0.10068212468500004,6.5769917665849995,6.053603620870548
000001433,NCc1cccc(c1)CN=C(N)C,C10H15N3,"InChI=1S/C10H15N3/c1-8(12)13-7-10-4-2-3-9(5-10)6-11/h2-5H,6-7,11H2,1H3,(H2,12,13)",177.2462,-5.92663966389,-0.09251870917000016,5.8341209547199995,2.447230297022738
000001434,CCCCCC(C=CC=CCCCCCCCCCC(=O)O)O,C20H36O3,"InChI=1S/C20H36O3/c1-2-3-13-16-19(21)17-14-11-9-7-5-4-6-8-10-12-15-18-20(22)23/h9,11,14,17,19,21H,2-8,10,12-13,15-16,18H2,1H3,(H,22,23)",324.49804,-5.809630708175,-0.4217764682749996,5.3878542399,3.728830786298032
000001435,CCC=CCC(C=CC=CCC=CCC=CCCCC(=O)O)O,C20H30O3,"InChI=1S/C20H30O3/c1-2-3-13-16-19(21)17-14-11-9-7-5-4-6-8-10-12-15-18-20(22)23/h3-5,8-11,13-14,17,19,21H,2,6-7,12,15-16,18H2,1H3,(H,22,23)",318.4504,-5.880380309305,-0.6068138866149999,5.27356642269,4.213516420240581
000001436,CCCCCC(C=CC=CCC=CCC=CCCCC(=O)O)O,C20H32O3,"InChI=1S/C20H32O3/c1-2-3-13-16-19(21)17-14-11-9-7-5-4-6-8-10-12-15-18-20(22)23/h4-5,8-11,14,17,19,21H,2-3,6-7,12-13,15-16,18H2,1H3,(H,22,23)",320.46628,-5.91575510987,-0.5932081940899998,5.32254691578,4.396909372803014
000001437,CCCCCC(C=CC=CCC=CCCCCCCC(=O)O)O,C20H34O3,"InChI=1S/C20H34O3/c1-2-3-13-16-19(21)17-14-11-9-7-5-4-6-8-10-12-15-18-20(22)23/h4-5,9,11,14,17,19,21H,2-3,6-8,10,12-13,15-16,18H2,1H3,(H,22,23)",322.48216,-5.836842093225,-0.4898049309000001,5.347037162325,3.8719687892342316
000001438,CCCCCC(C=CC=CCCCCCCCCCC(=O)O)OO,C20H36O4,"InChI=1S/C20H36O4/c1-2-3-13-16-19(24-23)17-14-11-9-7-5-4-6-8-10-12-15-18-20(21)22/h9,11,14,17,19,23H,2-8,10,12-13,15-16,18H2,1H3,(H,21,22)",340.49744,-5.9348030794049995,-0.5823236400700003,5.352479439334999,4.305615516929838
000001439,CCC=CCC(C=CC=CCC=CCC=CCCCC(=O)O)OO,C20H30O4,"InChI=1S/C20H30O4/c1-2-3-13-16-19(24-23)17-14-11-9-7-5-4-6-8-10-12-15-18-20(21)22/h3-5,8-11,13-14,17,19,23H,2,6-7,12,15-16,18H2,1H3,(H,21,22)",334.4498,-5.85589006276,-0.5659968090399996,5.289893253720001,3.883978519582852
000001440,CCCCCC(C=CC=CCC=CCC=CCCCC(=O)O)OO,C20H32O4,"InChI=1S/C20H32O4/c1-2-3-13-16-19(24-23)17-14-11-9-7-5-4-6-8-10-12-15-18-20(21)22/h4-5,8-11,14,17,19,23H,2-3,6-7,12-13,15-16,18H2,1H3,(H,21,22)",336.46568,-6.027321788575001,-0.721101703825,5.3062200847500005,3.5532175012833083
000001441,CCCCCC(=O)C=CC1C(O)CC(=O)C1CC=CCCCC(=O)O,C20H30O5,"InChI=1S/C20H30O5/c1-2-3-6-9-15(21)12-13-17-16(18(22)14-19(17)23)10-7-4-5-8-11-20(24)25/h4,7,12-13,16-17,19,23H,2-3,5-6,8-11,14H2,1H3,(H,24,25)",350.4492,-6.6559047832300005,-1.4476456846600003,5.20825909857,2.6271822746657683
000001442,CCCCCC(=O)C=CC1C(O)CC(C1CC=CCCCC(=O)O)O,C20H32O5,"InChI=1S/C20H32O5/c1-2-3-6-9-15(21)12-13-17-16(18(22)14-19(17)23)10-7-4-5-8-11-20(24)25/h4,7,12-13,16-19,22-23H,2-3,5-6,8-11,14H2,1H3,(H,24,25)",352.46508,-6.5688283510700005,-1.3469635599750003,5.221864791095,6.074159998477238
000001443,CCCCCC(=O)C=CC=CCC=CCC=CCCCC(=O)O,C20H30O3,"InChI=1S/C20H30O3/c1-2-3-13-16-19(21)17-14-11-9-7-5-4-6-8-10-12-15-18-20(22)23/h4-5,8-11,14,17H,2-3,6-7,12-13,15-16,18H2,1H3,(H,22,23)",318.4504,-6.34025271665,-1.70343270413,4.63682001252,3.390637410123501
000001444,CCCCCC=CC=C1C(CC=CCCCC(=O)O)C=CC1=O,C20H28O3,"InChI=1S/C20H28O3/c1-2-3-4-5-6-10-13-18-17(15-16-19(18)21)12-9-7-8-11-14-20(22)23/h6-7,9-10,13,15-17H,2-5,8,11-12,14H2,1H3,(H,22,23)",316.43452,-6.22596489944,-1.8449319063900003,4.38103299305,4.909395896498977
000001445,CCCCC(C(C=CC1C(O)CC(=O)C1CC=CCCCC(=O)O)O)(C)C,C22H36O5,"InChI=1S/C22H36O5/c1-4-5-14-22(2,3)20(25)13-12-17-16(18(23)15-19(17)24)10-8-6-7-9-11-21(26)27/h6,8,12-13,16-17,19-20,24-25H,4-5,7,9-11,14-15H2,1-3H3,(H,26,27)",380.51824,-6.68855844529,-1.5129530087799994,5.175605436510001,8.141468195846311
000001446,C=CCCCCCC=CC(C#CC#CC(C=C)O)O,C17H22O2,"InChI=1S/C17H22O2/c1-3-5-6-7-8-9-10-14-17(19)15-12-11-13-16(18)4-2/h3-4,10,14,16-19H,1-2,5-9H2",258.35538,-6.538895827515001,-0.7156594268149998,5.823236400700001,1.1644258191014145
000001447,C=CCCCCCC=CCC#CC#CC(C=C)O,C17H22O,"InChI=1S/C17H22O/c1-3-5-6-7-8-9-10-11-12-13-14-15-16-17(18)4-2/h3-4,10-11,17-18H,1-2,5-9,12H2",242.35598,-6.353858409175,-0.47347809987000034,5.880380309305,2.1761183737032783
000001448,CC1=CCCC(=CCCC(=CC2C(CC1)C(N(C)C)C(=O)O2)C)C(=O)O,C21H31NO4,"InChI=1S/C21H31NO4/c1-14-7-5-9-16(20(23)24)10-6-8-15(2)13-18-17(12-11-14)19(22(3)4)21(25)26-18/h7,10,13,17-19H,5-6,8-9,11-12H2,1-4H3,(H,23,24)",361.47514,-6.141609605785001,-0.28571954302500036,5.85589006276,7.248263995195057
000001449,C#CCCCCCCCCCCCCCCCC(=O)O,C18H32O2,"InChI=1S/C18H32O2/c1-2-3-4-5-6-7-8-9-10-11-12-13-14-15-16-17-18(19)20/h1H,3-17H2,(H,19,20)",280.44548,-6.919855218215001,0.23129677292499995,7.151151991140001,4.203305788410593
000001450,OC(=O)CCCC=CCC1C(=O)CC(C1C=CC(CCc1ccccc1)O)O,C23H30O5,"InChI=1S/C23H30O5/c24-18(13-12-17-8-4-3-5-9-17)14-15-20-19(21(25)16-22(20)26)10-6-1-2-7-11-23(27)28/h1,3-6,8-9,14-15,18-20,22,24,26H,2,7,10-13,16H2,(H,27,28)",386.4813,-6.606924290139999,-0.9714464462850003,5.635477843854999,5.8471048512632295
000001451,C#CC1(O)CCC2C1(C)CCC1C2CCc2c1ccc(c2)OC1CCCC1,C25H32O2,"InChI=1S/C25H32O2/c1-3-25(26)15-13-23-22-10-8-17-16-19(27-18-6-4-5-7-18)9-11-20(17)21(22)12-14-24(23,25)2/h1,9,11,16,18,21-23,26H,4-8,10,12-15H2,2H3",364.52038,-5.44771928701,0.14149920226000035,5.58921848927,3.155367112883697
000001452,OC(=O)CON=C1CCC2(C(=C1)CCC1C2CCC2(C1CCC2(C)O)C)C,C22H33NO4,"InChI=1S/C22H33NO4/c1-20-9-6-15(23-27-13-19(24)25)12-14(20)4-5-16-17(20)7-10-21(2)18(16)8-11-22(21,3)26/h12,16-18,26H,4-11,13H2,1-3H3,(H,24,25)",375.50172,-6.304877916085,-1.2734928203400004,5.031385095745,7.408307122875576
000001453,OC(C=CC1C(O)CC(=O)C1CC=CCCCC(=O)O)CCCC(O)C,C20H32O6,"InChI=1S/C20H32O6/c1-14(21)7-6-8-15(22)11-12-17-16(18(23)13-19(17)24)9-4-2-3-5-10-20(25)26/h2,4,11-12,14-17,19,21-22,24H,3,5-10,13H2,1H3,(H,25,26)",368.46448,-6.664068198745,-1.4775782082150002,5.18648999053,5.368167483652219
000001454,CC(CCCC(C=CC1C(O)CC(C1CC=CCCCC(=O)O)O)O)O,C20H34O6,"InChI=1S/C20H34O6/c1-14(21)7-6-8-15(22)11-12-17-16(18(23)13-19(17)24)9-4-2-3-5-10-20(25)26/h2,4,11-12,14-19,21-24H,3,5-10,13H2,1H3,(H,25,26)",370.48036,-6.631414536685,0.04898049309000019,6.680395029775,4.0383297354022485
000001455,COc1ccc(c(c1)Cl)OCc1ccc(cc1)COc1c(Cl)cccc1Cl,C21H17Cl3O3,"InChI=1S/C21H17Cl3O3/c1-25-16-9-10-20(19(24)11-16)26-12-14-5-7-15(8-6-14)13-27-21-17(22)3-2-4-18(21)23/h2-11H,12-13H2,1H3",423.71688,-5.5021420571099995,-0.6149773021299998,4.88716475498,0.7892358795303214
000001456,O=c1onc2n1c1ccccc1nc2,C9H5N3O2,InChI=1S/C9H5N3O2/c13-9-12-7-4-2-1-3-6(7)10-5-8(12)11-14-9/h1-5H,187.1549,-6.528011273495,-2.566033610215,3.9619776632800003,4.231842540276871
000001457,OC1Cc2c(C(C1O)O)ccc1c2cc2ccccc2c1,C18H16O3,"InChI=1S/C18H16O3/c19-16-9-15-13(17(20)18(16)21)6-5-12-7-10-3-1-2-4-11(10)8-14(12)15/h1-8,16-21H,9H2",280.31784,-5.47493067206,-1.782345720775,3.692584951285,2.7007329225971235
000001458,OCC1OC(C(C1(C)O)(C)OC)(C)n1cnc2c1ncnc2N,C14H21N5O4,"InChI=1S/C14H21N5O4/c1-12(21)8(5-20)23-14(3,13(12,2)22-4)19-7-18-9-10(15)16-6-17-11(9)19/h6-8,20-21H,5H2,1-4H3,(H2,15,16,17)",323.34764,-5.455882702525001,-0.17415286431999988,5.281729838205001,5.579715666693599
000001459,FC1CC(OC1COP(=O)(OP(=O)(O)O)O)n1ccc(=O)[nH]c1=O,C9H13FN2O10P2,"InChI=1S/C9H13FN2O10P2/c10-5-3-8(12-2-1-7(13)11-9(12)14)21-6(5)4-20-24(18,19)22-23(15,16)17/h1-2,5-6,8H,3-4H2,(H,18,19)(H,11,13,14)(H2,15,16,17)",390.1528452,-6.767471461935,-1.2707716818349999,5.4966997801,5.013090949157516
000001460,Nc1ncnc2c1ncn2C1CCC(O1)COP(=O)(OP(=O)(OP(=O)(O)O)O)O,C10H16N5O11P3,"InChI=1S/C10H16N5O11P3/c11-9-8-10(13-4-12-9)15(5-14-8)7-2-1-6(24-7)3-23-28(19,20)26-29(21,22)25-27(16,17)18/h4-7H,1-3H2,(H,19,20)(H,21,22)(H2,11,12,13)(H2,16,17,18)",475.182223,-5.87221689379,-0.6884480417649996,5.1837688520250005,4.48303630415347
000001461,Nc1ccn(c(=O)n1)C1CCC(O1)COP(=O)(OP(=O)(OP(=O)(O)O)O)O,C9H16N3O12P3,"InChI=1S/C9H16N3O12P3/c10-7-3-4-12(9(13)11-7)8-2-1-6(22-8)5-21-26(17,18)24-27(19,20)23-25(14,15)16/h3-4,6,8H,1-2,5H2,(H,17,18)(H,19,20)(H2,10,11,13)(H2,14,15,16)",451.157523,-6.17698440635,-0.9170236761849999,5.259960730165,5.170574716164248
000001462,Nc1nc(=O)c2c([nH]1)n(cn2)C1CCC(O1)COP(=O)(OP(=O)(OP(=O)(O)O)O)O,C10H16N5O12P3,"InChI=1S/C10H16N5O12P3/c11-10-13-8-7(9(16)14-10)12-4-15(8)6-2-1-5(25-6)3-24-29(20,21)27-30(22,23)26-28(17,18)19/h4-6H,1-3H2,(H,20,21)(H,22,23)(H2,17,18,19)(H3,11,13,14,16)",491.181623,-5.238191622125,-1.0340326318999997,4.204158990225,17.398110048573695
000001463,CC1OC(CC1OP(=O)(O)O)n1cnc2c1ncnc2N,C10H14N5O5P,"InChI=1S/C10H14N5O5P/c1-5-6(20-21(16,17)18)2-7(19-5)15-4-14-8-9(11)12-3-13-10(8)15/h3-7H,2H2,1H3,(H2,11,12,13)(H2,16,17,18)",315.222421,-5.81779412369,-0.5959293325950004,5.221864791094999,3.8417186048989844
000001464,CCOc1ccc(cc1)c1nc2c([nH]1)cc(cc2)c1nc2c([nH]1)cc(cc2)N1CCN(CC1)C,C27H28N6O,"InChI=1S/C27H28N6O/c1-3-34-21-8-4-18(5-9-21)26-28-22-10-6-19(16-24(22)30-26)27-29-23-11-7-20(17-25(23)31-27)33-14-12-32(2)13-15-33/h4-11,16-17H,3,12-15H2,1-2H3,(H,28,30)(H,29,31)",452.55082,-4.666752536075,-1.0993399560199997,3.5674125800550005,3.1581969926931412
000001465,OC1CC(OC1C)n1ccc(=O)[nH]c1=O,C9H12N2O4,"InChI=1S/C9H12N2O4/c1-5-6(12)4-8(15-5)11-3-2-7(13)10-9(11)14/h2-3,5-6,8,12H,4H2,1H3,(H,10,13,14)",212.20258,-6.5252901349900005,-1.0449171859200002,5.48037294907,4.404912492428538
000001467,OCC1OC(CC1OP(=O)(O)O)n1cnc2c1ncnc2N,C10H14N5O6P,"InChI=1S/C10H14N5O6P/c11-9-8-10(13-3-12-9)15(4-14-8)7-1-5(6(2-16)20-7)21-22(17,18)19/h3-7,16H,1-2H2,(H2,11,12,13)(H2,17,18,19)",331.221821,-5.70894858349,-0.46531468435499956,5.243633899135,3.7850307378848322
000001468,OC1C=CC(C1O)n1cnc2c1ncnc2N,C10H11N5O2,"InChI=1S/C10H11N5O2/c11-9-7-10(13-3-12-9)15(4-14-7)5-1-2-6(16)8(5)17/h1-6,8,16-17H,(H2,11,12,13)",233.22664,-5.986504711,-0.786409027945,5.200095683055,3.34920930112258
000001470,CC(=CCc1c(O)ccc(c1O)C1COc2c(C1=O)ccc(c2)O)C,C20H20O5,"InChI=1S/C20H20O5/c1-11(2)3-5-14-17(22)8-7-13(19(14)23)16-10-25-18-9-12(21)4-6-15(18)20(16)24/h3-4,6-9,16,21-23H,5,10H2,1-2H3",340.3698,-5.493978641595,-1.5211164242950002,3.9728622172999994,2.4071385482659697
000001472,OCC1NC(C(C1O)O)CO,C6H13NO4,"InChI=1S/C6H13NO4/c8-1-3-5(10)6(11)4(2-9)7-3/h3-11H,1-2H2",163.17172,-6.209638068409999,1.0503594629300004,7.25999753134,3.9689382510432183
000001474,c1ccc(nc1)c1ccccn1,C10H8N2,InChI=1S/C10H8N2/c1-3-7-11-9(5-1)10-6-2-4-8-12-10/h1-8H,156.18392,-6.35113727067,-1.3768960835300001,4.97424118714,0.3575580907349182
000001477,CCCCCC(C=CC1OC(O)CC(C1CC=CCC(=O)O)O)O,C18H30O6,"InChI=1S/C18H30O6/c1-2-3-4-7-13(19)10-11-16-14(8-5-6-9-17(21)22)15(20)12-18(23)24-16/h5-6,10-11,13-16,18-20,23H,2-4,7-9,12H2,1H3,(H,21,22)",342.4272,-6.683116168280001,-0.03265366206000042,6.65046250622,4.237028783667866
000001479,CCCCCC(C=CC1C(O)CC(C1CC(=O)CCC(=O)O)O)O,C18H30O6,"InChI=1S/C18H30O6/c1-2-3-4-5-12(19)6-8-14-15(17(22)11-16(14)21)10-13(20)7-9-18(23)24/h6,8,12,14-17,19,21-22H,2-5,7,9-11H2,1H3,(H,23,24)",342.4272,-6.206916929905,-0.8136204129950002,5.39329651691,4.411457141299346
000001480,OC(=O)COc1cc(Cl)c(cc1Cl)Cl,C8H5Cl3O3,"InChI=1S/C8H5Cl3O3/c9-4-1-6(11)7(2-5(4)10)14-3-8(12)13/h1-2H,3H2,(H,12,13)",255.4825,-6.69944299931,-1.3306367289449996,5.368806270365001,3.102424593515691
000001481,CC(OC(=O)COc1cc(Cl)c(cc1Cl)Cl)CCCCCC,C16H21Cl3O3,"InChI=1S/C16H21Cl3O3/c1-3-4-5-6-7-11(2)22-16(20)10-21-15-9-13(18)12(17)8-14(15)19/h8-9,11H,3-7,10H2,1-2H3",367.69514,-6.51984785798,-0.7972935819650004,5.722554276015,3.881820188587565
000001482,COC(=O)COc1cc(Cl)c(cc1Cl)Cl,C9H7Cl3O3,"InChI=1S/C9H7Cl3O3/c1-14-9(13)4-15-8-3-6(11)5(10)2-7(8)12/h2-3H,4H2,1H3",269.50908,-6.571549489575,-0.8462740750549997,5.72527541452,3.6248516478988484
000001484,Nc1nc(N)c2c(n1)NCC(N2)c1ccccc1,C12H14N6,"InChI=1S/C12H14N6/c13-10-9-11(18-12(14)17-10)15-6-8(16-9)7-4-2-1-3-5-7/h1-5,8,16H,6H2,(H5,13,14,15,17,18)",242.27976,-4.8436265389,-0.23946018843999983,4.60416635046,2.4735375905946935
000001485,NCc1ccc(cc1Cl)Cl,C7H7Cl2N,"InChI=1S/C7H7Cl2N/c8-6-2-1-5(4-10)7(9)3-6/h1-3H,4,10H2",176.04318,-6.451819395355001,-0.5224585929599996,5.929360802395001,2.546947712007846
000001486,OC(=O)COc1ccc(cc1Cl)Cl,C8H6Cl2O3,"InChI=1S/C8H6Cl2O3/c9-5-1-2-7(6(10)3-5)13-4-8(11)12/h1-3H,4H2,(H,11,12)",221.03744,-6.6205299826649995,-1.1020610945250002,5.518468888139999,2.43406677394705
000001487,CCCCCCC(OC(=O)COc1ccc(cc1Cl)Cl)C,C16H22Cl2O3,"InChI=1S/C16H22Cl2O3/c1-3-4-5-6-7-12(2)21-16(19)11-20-15-9-8-13(17)10-14(15)18/h8-10,12H,3-7,11H2,1-2H3",333.25008,-6.16065757532,-0.6911691802700002,5.46948839505,3.6601294963947657
000001488,COC(=O)COc1ccc(cc1Cl)Cl,C9H8Cl2O3,"InChI=1S/C9H8Cl2O3/c1-13-9(12)5-14-8-3-2-6(10)4-7(8)11/h2-4H,5H2,1H3",235.06402,-6.212359206915,-0.7347073963500002,5.477651810565,3.7126820298242613
000001489,OC(=O)CCCOc1ccc(cc1Cl)Cl,C10H10Cl2O3,"InChI=1S/C10H10Cl2O3/c11-7-3-4-9(8(12)6-7)15-5-1-2-10(13)14/h3-4,6H,1-2,5H2,(H,13,14)",249.0906,-6.098071389705,-0.6503521026949999,5.44771928701,2.963495865199916
000001490,COC(=O)CCCOc1ccc(cc1Cl)Cl,C11H12Cl2O3,"InChI=1S/C11H12Cl2O3/c1-15-11(14)3-2-6-16-10-5-4-8(12)7-9(10)13/h4-5,7H,2-3,6H2,1H3",263.11718,-6.098071389705,-0.6530732411999995,5.444998148505,2.3698498704930655
000001491,Oc1ccc(c(c1)O)C(=O)O,C7H6O4,"InChI=1S/C7H6O4/c8-4-1-2-5(7(10)11)6(9)3-4/h1-3,8-9H,(H,10,11)",154.12014,-6.31848360861,-1.2734928203399996,5.044990788270001,3.8464531439020546
000001492,COc1ccc(cc1NS(=O)(=O)c1ccc(cc1)OC)[N+](=O)[O-],C14H14N2O6S,"InChI=1S/C14H14N2O6S/c1-21-11-4-6-12(7-5-11)23(19,20)15-13-9-10(16(17)18)3-8-14(13)22-2/h3-9,15H,1-2H3",338.33576,-6.119840497745,-2.07894981782,4.040890679925,2.4813117018615376
000001493,[O-][N+](=O)c1ccc(c(c1)[N+](=O)[O-])O,C6H4N2O5,"InChI=1S/C6H4N2O5/c9-6-2-1-4(7(10)11)3-5(6)8(12)13/h1-3,9H",184.10636,-7.55932276689,-2.6966482584549993,4.862674508435001,6.112894368032299
000001494,OCC1OC(C(C1O)O)CO,C6H12O5,"InChI=1S/C6H12O5/c7-1-3-5(9)6(10)4(2-8)11-3/h3-10H,1-2H2",164.15648,-6.704885276320001,0.4081707757500004,7.113056052070001,0.8761648956663352
000001495,OC1C(COP(=O)(O)O)OC(C1O)COP(=O)(O)O,C6H14O11P2,"InChI=1S/C6H14O11P2/c7-5-3(1-15-18(9,10)11)17-4(6(5)8)2-16-19(12,13)14/h3-8H,1-2H2,(H2,9,10,11)(H2,12,13,14)",324.116282,-7.371564210044999,-0.12789350973500024,7.243670700309999,5.649712835990339
000001496,NC(c1ccc(cc1)c1ccc(o1)c1ccc(cc1)C(NC1CCC1)N)NC1CCC1,C26H32N4O,"InChI=1S/C26H32N4O/c27-25(29-21-3-1-4-21)19-11-7-17(8-12-19)23-15-16-24(31-23)18-9-13-20(14-10-18)26(28)30-22-5-2-6-22/h7-16,21-22,25-26,29-30H,1-6,27-28H2",416.55848,-5.05587534229,-1.2217911887450001,3.834084153545,0.7248457100728403
000001497,NC(c1ccc(cc1)c1ccc(o1)c1ccc(cc1)C(NC1CCCCC1)N)NC1CCCCC1,C30H40N4O,"InChI=1S/C30H40N4O/c31-29(33-25-7-3-1-4-8-25)23-15-11-21(12-16-23)27-19-20-28(35-27)22-13-17-24(18-14-22)30(32)34-26-9-5-2-6-10-26/h11-20,25-26,29-30,33-34H,1-10,31-32H2",472.6648,-5.080365588835,-1.24083915828,3.839526430555,1.3924979442634737
000001498,Cc1noc(c1)CCCOc1c(C)cc(cc1C)c1nnn(n1)C,C17H21N5O2,"InChI=1S/C17H21N5O2/c1-11-8-14(17-18-21-22(4)19-17)9-12(2)16(11)23-7-5-6-15-10-13(3)20-24-15/h8-10H,5-7H2,1-4H3",327.38094,-6.054533173625,-1.0993399560199997,4.955193217605,4.657817322789827
000001499,O=C1C(CCCCC1Cc1ccc(cc1)C(=N)N)Cc1ccc(cc1)C(=N)N,C23H28N4O,"InChI=1S/C23H28N4O/c24-22(25)17-9-5-15(6-10-17)13-19-3-1-2-4-20(21(19)28)14-16-7-11-18(12-8-16)23(26)27/h5-12,19-20H,1-4,13-14H2,(H3,24,25)(H3,26,27)",376.49462,-6.1878689603699994,-0.6938903187749998,5.493978641595,3.665466000559274
000001508,Oc1ccccc1c1cc2c([nH]1)ccc(c2)C(=N)N,C15H13N3O,"InChI=1S/C15H13N3O/c16-15(17)9-5-6-12-10(7-9)8-13(18-12)11-3-1-2-4-14(11)19/h1-8,18-19H,(H3,16,17)",251.28322,-5.2245859296,-1.0449171859200002,4.17966874368,6.300421376557365