mol_id,SMILES,formula,inchi,mass,HOMO(eV),LUMO(eV),GAP(eV),dipole_moment
000000751,OC(C=O)CO,C3H6O3,"InChI=1S/C3H6O3/c4-1-3(6)2-5/h1,3,5-6H,2H2",90.07794,-6.9307397722349995,-1.385059499045,5.5456802731899995,2.3929102615992517
000000752,OCC(C(=O)O)O,C3H6O4,"InChI=1S/C3H6O4/c4-1-2(5)3(6)7/h2,4-5H,1H2,(H,6,7)",106.07734,-7.545717074365,0.059865047109999736,7.605582121475,4.481817129553369
000000753,OCC(CO)O,C3H8O3,"InChI=1S/C3H8O3/c4-1-3(6)2-5/h3-6H,1-2H2",92.09382,-6.81917309353,1.3115887594099993,8.13076185294,1.2054475928367852
000000754,OCC(COP(=O)(O)O)O,C3H9O6P,"InChI=1S/C3H9O6P/c4-1-3(5)2-9-10(6,7)8/h3-5H,1-2H2,(H2,6,7,8)",172.073721,-7.164757683665,0.40272849874000016,7.567486182405,2.022627192741411
000000755,OC1CCC2(C(C1)CC(C1C2CC(O)C2(C1CCC2C(CCC(=O)NCC(=O)O)C)C)O)C,C26H43NO6,"InChI=1S/C26H43NO6/c1-14(4-7-22(31)27-13-23(32)33)17-5-6-18-24-19(12-21(30)26(17,18)3)25(2)9-8-16(28)10-15(25)11-20(24)29/h14-21,24,28-30H,4-13H2,1-3H3,(H,27,31)(H,32,33)",465.62272,-6.50896330396,0.1306146482399999,6.6395779522,7.085991364048223
000000756,OCC=O,C2H4O2,"InChI=1S/C2H4O2/c3-1-2-4/h1,4H,2H2",60.05196,-7.3334682709750005,-1.1728106956550004,6.16065757532,2.2827589783636815
000000757,OCC(=O)O,C2H4O3,"InChI=1S/C2H4O3/c3-1-2(4)5/h3H,1H2,(H,4,5)",76.05136,-7.57564959792,-0.2068065263800003,7.36884307154,3.316409794428457
000000760,O=CC(=O)O,C2H2O3,"InChI=1S/C2H2O3/c3-1-2(4)5/h1H,(H,4,5)",74.03548,-7.676331722605001,-2.8816856767949997,4.794646045810001,2.138485109290219
000000761,OC1C(O)C(OC1n1cnc2c1[nH]c(N)nc2=O)COP(=O)(O)O,C10H14N5O8P,"InChI=1S/C10H14N5O8P/c11-10-13-7-4(8(18)14-10)12-2-15(7)9-6(17)5(16)3(23-9)1-22-24(19,20)21/h2-3,5-6,9,16-17H,1H2,(H2,19,20,21)(H3,11,13,14,18)",363.220621,-5.836842093225,-0.33197889761,5.504863195615,12.026654721679092
000000763,OC(=O)CN=C(N)N,C3H7N3O2,"InChI=1S/C3H7N3O2/c4-3(5)6-1-2(7)8/h1H2,(H,7,8)(H4,4,5,6)",117.10658,-6.185147821865,0.1251723712299997,6.3103201930949995,3.5736972946489187
000000764,Nc1nc(=O)c2c([nH]1)nc[nH]2,C5H5N5O,"InChI=1S/C5H5N5O/c6-5-9-3-2(4(11)10-5)7-1-8-3/h1H,(H4,6,7,8,9,10,11)",151.1261,-5.95929332595,-0.7265439808350003,5.232749345115,4.1481115747061335
000000765,OCC1OC(C(C1O)O)n1cnc2c1[nH]c(N)nc2=O,C10H13N5O5,"InChI=1S/C10H13N5O5/c11-10-13-7-4(8(19)14-10)12-2-15(7)9-6(18)5(17)3(1-16)20-9/h2-3,5-6,9,16-18H,1H2,(H3,11,13,14,19)",283.24072,-5.7688136305999995,-0.31020978957,5.4586038410299995,9.317985711153726
000000767,OC(=O)O,CH2O3,"InChI=1S/CH2O3/c2-1(3)4/h(H2,2,3,4)",62.02478,-8.002868343205,0.9006968451550001,8.90356518836,0.08594565907595333
000000768,C#N,CHN,InChI=1S/CHN/c1-2/h1H,27.02534,-9.804262033515,0.5877659170800005,10.392027950595,2.884634
000000773,NC(C(=O)O)Cc1cnc[nH]1,C6H9N3O2,"InChI=1S/C6H9N3O2/c7-5(6(10)11)1-4-2-8-3-9-4/h2-3,5H,1,7H2,(H,8,9)(H,10,11)",155.15456,-6.307599054590001,-0.059865047109999736,6.247734007480001,1.7982834677241517
000000774,NCCc1cnc[nH]1,C5H9N3,"InChI=1S/C5H9N3/c6-2-1-5-3-7-4-8-5/h3-4H,1-2,6H2,(H,7,8)",111.14506,-5.72527541452,0.6557943797050001,6.3810697942250005,3.5008147594158703
000000775,NC(C=O)Cc1cnc[nH]1,C6H9N3O,"InChI=1S/C6H9N3O/c7-5(3-10)1-6-2-8-4-9-6/h2-5H,1,7H2,(H,8,9)",139.15516,-5.986504711,-0.9034179836599998,5.08308672734,2.325191682886811
000000776,NC(CO)Cc1cnc[nH]1,C6H11N3O,"InChI=1S/C6H11N3O/c7-5(3-10)1-6-2-8-4-9-6/h2,4-5,10H,1,3,7H2,(H,8,9)",141.17104,-5.902149417345,0.454430130335,6.35657954768,2.577087986267252
000000777,OCc1cnc(nc1N)C,C6H9N3O,"InChI=1S/C6H9N3O/c1-4-8-2-5(3-10)6(7)9-4/h2,10H,3H2,1H3,(H2,7,8,9)",139.15516,-6.0790234201699995,-0.5306220084749995,5.548401411695,2.1232722259684462
000000778,NC(C(=O)O)CCS,C4H9NO2S,"InChI=1S/C4H9NO2S/c5-3(1-2-8)4(6)7/h3,8H,1-2,5H2,(H,6,7)",135.18476,-6.68855844529,-0.1251723712299997,6.56338607406,3.4998803823003724
000000779,OCCC(C(=O)O)N,C4H9NO3,"InChI=1S/C4H9NO3/c5-3(1-2-6)4(7)8/h3,6H,1-2,5H2,(H,7,8)",119.11916,-6.707606414825,0.11973009422000036,6.827336509045001,1.9282431369147928
000000780,OC(=O)Cc1cc(O)ccc1O,C8H8O4,"InChI=1S/C8H8O4/c9-6-1-2-7(10)5(3-6)4-8(11)12/h1-3,9-10H,4H2,(H,11,12)",168.14672,-5.853168924255001,-0.6313041331599996,5.221864791095001,4.992377935688563
000000781,SC#N,CHNS,InChI=1S/CHNS/c2-1-3/h3H,59.09034,-7.8613691409449995,-0.9251870916999998,6.936182049245,3.3239102925898885
000000782,OC(=O)CCC1NC(=O)NC1=O,C6H8N2O4,"InChI=1S/C6H8N2O4/c9-4(10)2-1-3-5(11)8-6(12)7-3/h3H,1-2H2,(H,9,10)(H2,7,8,11,12)",172.13872,-7.300814608915,-1.0802919864850002,6.22052262243,3.2337209889107625
000000783,[H][H],H2,InChI=1S/H2/h1H,2.01588,-11.695453294490001,2.5578701946999995,14.25332348919,1.5e-05
000000784,OO,H2O2,InChI=1S/H2O2/c1-2/h1-2H,34.01468,-6.47086736489,1.2000220807049997,7.670889445595,1.0099504938362079e-05
000000785,Oc1ccc(cc1)O,C6H6O2,"InChI=1S/C6H6O2/c7-5-1-2-6(8)4-3-5/h1-4,7-8H",110.11064,-5.29533553073,-0.08163415514999972,5.21370137558,4.0024992192379006e-05
000000786,OCC(=CCOP(=O)(OP(=O)(O)O)O)C,C5H12O8P2,"InChI=1S/C5H12O8P2/c1-5(4-6)2-3-12-15(10,11)13-14(7,8)9/h2,6H,3-4H2,1H3,(H,10,11)(H2,7,8,9)",262.091502,-6.898086110175,-0.6530732412000004,6.2450128689749995,4.536735540923782
000000787,NO,H3NO,"InChI=1S/H3NO/c1-2/h2H,1H2",33.02992,-6.772913738945,2.0299693247300006,8.802883063675,0.5238091205668339
000000790,O=c1nc[nH]c2c1[nH]cn2,C5H4N4O,"InChI=1S/C5H4N4O/c10-5-3-4(7-1-6-3)8-2-9-5/h1-2H,(H2,6,7,8,9,10)",136.11146,-6.2232437609349995,-1.0802919864850002,5.142951774449999,4.396064400184557
000000791,CCC(C(C(=O)O)N)C,C6H13NO2,"InChI=1S/C6H13NO2/c1-3-4(2)5(7)6(8)9/h4-5H,3,7H2,1-2H3,(H,8,9)",131.17292,-6.615087705655,0.11700895571499981,6.73209666137,3.051091439322165
000000792,O=C(Cc1cnc[nH]1)COP(=O)(O)O,C6H9N2O5P,"InChI=1S/C6H9N2O5P/c9-6(3-13-14(10,11)12)1-5-2-7-4-8-5/h2,4H,1,3H2,(H,7,8)(H2,10,11,12)",220.119821,-6.049090896615,-1.7905091362899999,4.258581760325,4.65990507846383
000000793,OC(C(=O)O)Cc1cnc[nH]1,C6H8N2O3,"InChI=1S/C6H8N2O3/c9-5(6(10)11)1-4-2-7-3-8-4/h2-3,5,9H,1H2,(H,7,8)(H,10,11)",156.13932,-6.370185240205,-0.2557870194699996,6.1143982207350005,2.429095056054003
000000794,OC(=O)C(=O)Cc1cnc[nH]1,C6H6N2O3,"InChI=1S/C6H6N2O3/c9-5(6(10)11)1-4-2-7-3-8-4/h2-3H,1H2,(H,7,8)(H,10,11)",154.12344,-6.076302281665,-2.8299840452,3.246318236465,2.8306551176010477
000000795,c1ncc[nH]1,C3H4N2,"InChI=1S/C3H4N2/c1-2-5-3-4-1/h1-3H,(H,4,5)",68.07726,-6.054533173625,0.5850447785749999,6.6395779522,3.6525951086971027
000000796,OC(=O)CC(=N)C(=O)O,C4H5NO4,"InChI=1S/C4H5NO4/c5-2(4(8)9)1-3(6)7/h5H,1H2,(H,6,7)(H,8,9)",131.0868,-7.404217872105001,-1.9945945241650005,5.40962334794,1.706853486030948
000000797,OC1C(O)C(OC1n1cnc2c1[nH]cnc2=O)COP(=O)(O)O,C10H13N4O8P,"InChI=1S/C10H13N4O8P/c15-6-4(1-21-23(18,19)20)22-10(7(6)16)14-3-13-5-8(14)11-2-12-9(5)17/h2-4,6-7,10,15-16H,1H2,(H,11,12,17)(H2,18,19,20)",348.205981,-6.12256163625,-0.9034179836599998,5.219143652590001,8.212366391820387
000000798,c1ccc2c(c1)[nH]cc2,C8H7N,"InChI=1S/C8H7N/c1-2-4-8-7(3-1)5-6-9-8/h1-6,9H",117.14788,-5.4286713174750005,-0.09796098618000038,5.330710331295,2.059627624831246
000000799,OC(C(c1c[nH]c2c1cccc2)O)COP(=O)(O)O,C11H14NO6P,"InChI=1S/C11H14NO6P/c13-10(6-18-19(15,16)17)11(14)8-5-12-9-4-2-1-3-7(8)9/h1-5,10-14H,6H2,(H2,15,16,17)",287.205721,-5.77425590761,-0.5523911165150004,5.221864791094999,3.755673505150041
000000800,O=CCc1c[nH]c2c1cccc2,C10H9NO,"InChI=1S/C10H9NO/c12-6-5-8-7-11-10-4-2-1-3-9(8)10/h1-4,6-7,11H,5H2",159.18456,-5.581055073755,-0.6530732412000004,4.927981832555,4.078878362962789
000000802,OC(=O)Cc1c[nH]c2c1cccc2,C10H9NO2,"InChI=1S/C10H9NO2/c12-10(13)5-7-6-11-9-4-2-1-3-8(7)9/h1-4,6,11H,5H2,(H,12,13)",175.18396,-5.861332339770001,-0.6911691802700002,5.1701631595,5.807368296100223
000000803,OC(=O)C(=O)Cc1c[nH]c2c1cccc2,C11H9NO3,"InChI=1S/C11H9NO3/c13-10(11(14)15)5-7-6-12-9-4-2-1-3-8(7)9/h1-4,6,12H,5H2,(H,14,15)",203.19406,-5.58377621226,-2.3755539148650002,3.208222297395,4.109054092524337
000000804,OCC1OC(C(C1O)O)n1cnc2c1[nH]cnc2=O,C10H12N4O5,"InChI=1S/C10H12N4O5/c15-1-4-6(16)7(17)10(19-4)14-3-13-5-8(14)11-2-12-9(5)18/h2-4,6-7,10,15-17H,1H2,(H,11,12,18)",268.22608,-5.986504711,-0.7728033354199999,5.21370137558,9.57742563637463
000000805,OC1C(OP(=O)(O)O)C(O)C(C(C1O)OP(=O)(O)O)O,C6H14O12P2,"InChI=1S/C6H14O12P2/c7-1-2(8)6(18-20(14,15)16)4(10)3(9)5(1)17-19(11,12)13/h1-10H,(H2,11,12,13)(H2,14,15,16)",340.115682,-7.40693901061,-0.08435529365500027,7.322583716955,3.22168083673259
000000806,OC1C(OP(=O)(O)O)C(OP(=O)(O)O)C(C(C1O)OP(=O)(O)O)O,C6H15O15P3,"InChI=1S/C6H15O15P3/c7-1-2(8)5(20-23(13,14)15)6(21-24(16,17)18)3(9)4(1)19-22(10,11)12/h1-9H,(H2,10,11,12)(H2,13,14,15)(H2,16,17,18)",420.095583,-7.62463009101,-0.23129677292499995,7.393333318085,4.7688070628847
000000809,C=C(C(=O)O)OC1C=CC=C(C1O)C(=O)O,C10H10O6,"InChI=1S/C10H10O6/c1-5(9(12)13)16-7-4-2-3-6(8(7)11)10(14)15/h2-4,7-8,11H,1H2,(H,12,13)(H,14,15)",226.1828,-7.06407555898,-2.6231775188199995,4.4408980401600004,5.617164621438204
000000811,OC(=O)CC(=C)C(=O)O,C5H6O4,"InChI=1S/C5H6O4/c1-3(5(8)9)2-4(6)7/h1-2H2,(H,6,7)(H,8,9)",130.09874,-7.15115199114,-0.7891301664499997,6.36202182469,5.8947207867977935
000000815,OCC1OC(OC2C(N)CC(C(C2O)OC2OC(CN)C(C(C2O)O)O)N)C(C(C1O)N)O,C18H36N4O11,"InChI=1S/C18H36N4O11/c19-2-6-10(25)12(27)13(28)18(30-6)33-16-5(21)1-4(20)15(14(16)29)32-17-11(26)8(22)9(24)7(3-23)31-17/h4-18,23-29H,1-3,19-22H2",484.49864,-5.929360802395,1.0340326318999997,6.963393434295,3.2822700598600965
000000816,OCC1OC(OC2C(N)CC(C(C2O)OC2OC(CN)C(C(C2N)O)O)N)C(C(C1O)N)O,C18H37N5O10,"InChI=1S/C18H37N5O10/c19-2-6-11(26)12(27)9(23)17(30-6)32-15-4(20)1-5(21)16(14(15)29)33-18-13(28)8(22)10(25)7(3-24)31-18/h4-18,24-29H,1-3,19-23H2",483.51388,-5.861332339770001,1.2081854962199996,7.06951783599,2.4338228746048878
000000817,OCC(C(C(C(CC(=O)C(=O)O)O)O)O)O,C8H14O8,"InChI=1S/C8H14O8/c9-2-5(12)7(14)6(13)3(10)1-4(11)8(15)16/h3,5-7,9-10,12-14H,1-2H2,(H,15,16)",238.19196,-6.778356015955,-2.7211385050000008,4.057217510954999,1.486451642188201
000000818,OC(C(C(C(CC(=O)C(=O)O)O)O)O)COP(=O)(O)O,C8H15O11P,"InChI=1S/C8H15O11P/c9-3(1-4(10)8(14)15)6(12)7(13)5(11)2-19-20(16,17)18/h3,5-7,9,11-13H,1-2H2,(H,14,15)(H2,16,17,18)",318.171861,-7.14026743712,-2.79188810613,4.34837933099,1.8197746656091793
000000824,CCCC(C(=O)O)N,C5H11NO2,"InChI=1S/C5H11NO2/c1-2-3-4(6)5(7)8/h4H,2-3,6H2,1H3,(H,7,8)",117.14634,-6.598760874625,0.27211385050000025,6.870874725125001,3.8189557710846826
000000825,OC1CNC(C1)C(=O)O,C5H9NO3,"InChI=1S/C5H9NO3/c7-3-1-4(5(8)9)6-2-3/h3-4,6-7H,1-2H2,(H,8,9)",131.12986,-6.71576983034,0.12245123272500003,6.838221063065,4.919752954255529
000000826,O=C(NC(C(=O)O)CCCC(C(=O)O)N)CCC(C(=O)O)NC(=O)C(N)C,C15H26N4O8,"InChI=1S/C15H26N4O8/c1-7(16)12(21)19-10(15(26)27)5-6-11(20)18-9(14(24)25)4-2-3-8(17)13(22)23/h7-10H,2-6,16-17H2,1H3,(H,18,20)(H,19,21)(H,22,23)(H,24,25)(H,26,27)",390.38894,-6.582434043595001,-0.7755244739249996,5.806909569670001,4.5182092819198845
000000827,OCC(C(C(CO)O)O)O,C5H12O5,"InChI=1S/C5H12O5/c6-1-3(8)5(10)4(9)2-7/h3-10H,1-2H2",152.14578,-6.62325112117,1.0775708479800006,7.700821969150001,0.9485078997109092
000000828,NC(=NCCCC(C(=O)O)N)NC(C(=O)O)CC(=O)O,C10H18N4O6,"InChI=1S/C10H18N4O6/c11-5(8(17)18)2-1-3-13-10(12)14-6(9(19)20)4-7(15)16/h5-6H,1-4,11H2,(H,15,16)(H,17,18)(H,19,20)(H3,12,13,14)",290.27312,-6.451819395355001,-0.7836878894400003,5.668131505915,8.006885066669623
000000829,O=CCC(C(=O)O)N,C4H7NO3,"InChI=1S/C4H7NO3/c5-3(1-2-6)4(7)8/h2-3H,1,5H2,(H,7,8)",117.10328,-6.783798292965,-1.6925481501100004,5.091250142854999,4.170147274857928
000000832,O=C(OP(=O)(O)O)CC(C(=O)O)N,C4H8NO7P,"InChI=1S/C4H8NO7P/c5-2(4(7)8)1-3(6)12-13(9,10)11/h2H,1,5H2,(H,7,8)(H2,9,10,11)",213.082581,-7.039585312434999,-1.537443255325,5.5021420571099995,1.9485816372823594
000000833,NC(=O)NCCCC(C(=O)O)N,C6H13N3O3,"InChI=1S/C6H13N3O3/c7-4(5(10)11)2-1-3-9-6(8)12/h4H,1-3,7H2,(H,10,11)(H3,8,9,12)",175.18572,-6.636856813695,0.2068065263800003,6.843663340075,4.96856056663366
000000834,NC(C(=O)O)CCSCC(C(=O)O)N,C7H14N2O4S,"InChI=1S/C7H14N2O4S/c8-4(6(10)11)1-2-14-3-5(9)7(12)13/h4-5H,1-3,8-9H2,(H,10,11)(H,12,13)",222.26206,-6.22052262243,-0.7020537342899997,5.51846888814,6.896032483990342
000000835,OCC(C1OC(=O)C(=O)C1=O)O,C6H6O6,"InChI=1S/C6H6O6/c7-1-2(8)5-3(9)4(10)6(11)12-5/h2,5,7-8H,1H2",174.10824,-6.952508880275,-3.6789792587599996,3.2735296215150007,5.174781827494566
000000836,OC(=O)C(Cc1ccc(c(c1)O)O)N,C9H11NO4,"InChI=1S/C9H11NO4/c10-6(9(13)14)3-5-1-2-7(11)8(12)4-5/h1-2,4,6,11-12H,3,10H2,(H,13,14)",197.18794,-5.95385104894,-0.35646914415499964,5.597381904785,4.5988523171245665
000000837,OC(=O)C1NC2=CC(=O)C(=O)CC2=C1,C9H7NO4,"InChI=1S/C9H7NO4/c11-7-2-4-1-6(9(13)14)10-5(4)3-8(7)12/h1,3,6,10H,2H2,(H,13,14)",193.15618,-6.40556004077,-2.2531026821399998,4.15245735863,3.6650707421512347
000000838,CNCC(c1ccc(c(c1)O)O)O,C9H13NO3,"InChI=1S/C9H13NO3/c1-10-5-9(13)6-2-3-7(11)8(12)4-6/h2-4,9-13H,5H2,1H3",183.20442,-5.619151012825,0.008163415514999883,5.62731442834,2.2459754518527135
000000839,OC(=O)C(CC(C(=O)O)O)N,C5H9NO5,"InChI=1S/C5H9NO5/c6-2(4(8)9)1-3(7)5(10)11/h2-3,7H,1,6H2,(H,8,9)(H,10,11)",163.12866,-6.69944299931,-0.6775634877450001,6.021879511565,4.570862938487436
000000840,OC1C(C)OC(C(C1O)O)O,C6H12O5,"InChI=1S/C6H12O5/c1-2-3(7)4(8)5(9)6(10)11-2/h2-10H,1H3",164.15648,-6.963393434295001,1.3007042053900006,8.264097639685001,1.2394208111267133
000000841,OCC(=O)C(C(C(O)C)O)O,C6H12O5,"InChI=1S/C6H12O5/c1-3(8)5(10)6(11)4(9)2-7/h3,5-8,10-11H,2H2,1H3",164.15648,-6.876317002135,-0.9932155543250003,5.88310144781,2.932275981592626
000000842,SCC(C(=O)O)NC(=O)CCC(C(=O)O)N,C8H14N2O5S,"InChI=1S/C8H14N2O5S/c9-4(7(12)13)1-2-6(11)10-5(3-16)8(14)15/h4-5,16H,1-3,9H2,(H,10,11)(H,12,13)(H,14,15)",250.27216,-6.397396625255,-0.9660041692750001,5.43139245598,4.578881107133161
000000843,O=C(OP(=O)(O)O)CCC(C(=O)O)N,C5H10NO7P,"InChI=1S/C5H10NO7P/c6-3(5(8)9)1-2-4(7)13-14(10,11)12/h3H,1-2,6H2,(H,8,9)(H2,10,11,12)",227.109161,-6.566107212565,-1.3388001444599995,5.2273070681050005,5.374448644921077
000000844,O=CCCC(C(=O)O)N,C5H9NO3,"InChI=1S/C5H9NO3/c6-4(5(8)9)2-1-3-7/h3-4H,1-2,6H2,(H,8,9)",131.12986,-6.56338607406,-1.8340473523699998,4.7293387216900005,4.546595694652648
000000845,NC(Cc1cnc[nH]1)COP(=O)(O)O,C6H12N3O4P,"InChI=1S/C6H12N3O4P/c7-5(3-13-14(10,11)12)1-6-2-8-4-9-6/h2,4-5H,1,3,7H2,(H,8,9)(H2,10,11,12)",221.150941,-5.4966997801,0.23673904993500017,5.733438830035,6.107530432799823
000000846,OC(=O)C(CC(=O)c1ccccc1N)N,C10H12N2O3,"InChI=1S/C10H12N2O3/c11-7-4-2-1-3-6(7)9(13)5-8(12)10(14)15/h1-4,8H,5,11-12H2,(H,14,15)",208.21388,-5.9701778799700005,-1.9047969535,4.0653809264700005,6.291111062838582
000000847,CS(=O)CCC(C(=O)O)N,C5H11NO3S,"InChI=1S/C5H11NO3S/c1-10(9)3-2-4(6)5(7)8/h4H,2-3,6H2,1H3,(H,7,8)",165.21074,-6.307599054590001,-0.2068065263800003,6.10079252821,2.8780705115055816
000000848,OCC(C(C(=O)O)O)(C)C,C6H12O4,"InChI=1S/C6H12O4/c1-6(2,3-7)4(8)5(9)10/h4,7-8H,3H2,1-2H3,(H,9,10)",148.15708,-7.126661744595001,-0.165989448805,6.960672295790001,2.071478247298291
000000849,OC(=O)C1CCCCN1,C6H11NO2,"InChI=1S/C6H11NO2/c8-6(9)5-3-1-2-4-7-5/h5,7H,1-4H2,(H,8,9)",129.15704,-6.816451955025,0.38368052920499984,7.20013248423,5.027255745038838
000000850,OCC(=O)C(C(COP(=O)(O)O)O)O,C5H11O8P,"InChI=1S/C5H11O8P/c6-1-3(7)5(9)4(8)2-13-14(10,11)12/h4-6,8-9H,1-2H2,(H2,10,11,12)",230.109801,-6.598760874625,-0.8707643216000003,5.727996553025,4.5486582935649285
000000852,OC(=O)C(C(C(=O)O)C)N,C5H9NO4,"InChI=1S/C5H9NO4/c1-2(4(7)8)3(6)5(9)10/h2-3H,6H2,1H3,(H,7,8)(H,9,10)",147.12926,-7.170199960675,-0.48708379239500044,6.68311616828,2.3215457726732422
000000854,OCC(C(C(C=O)O)O)O,C5H10O5,"InChI=1S/C5H10O5/c6-1-3(8)5(10)4(9)2-7/h1,3-5,7-10H,2H2",150.1299,-6.865432448115,-1.276213958845,5.58921848927,0.5994058336628031
000000855,CC(C=O)O,C3H6O2,"InChI=1S/C3H6O2/c1-3(5)2-4/h2-3,5H,1H3",74.07854,-6.7647503234299995,-0.8843700141250004,5.880380309304999,2.3842753719933443
000000856,CC(=CCCC(C1CCC2(C1(C)CCC1=C2CCC2C1(C)CCC(C2(C)C)O)C)C)C,C30H50O,"InChI=1S/C30H50O/c1-20(2)10-9-11-21(3)22-14-18-30(8)24-12-13-25-27(4,5)26(31)16-17-28(25,6)23(24)15-19-29(22,30)7/h10,21-22,25-26,31H,9,11-19H2,1-8H3",426.7174,-5.874938032295001,0.6721212107349999,6.5470592430300005,1.805402599370567
000000857,NC(C(=O)O)CC(C)C,C6H13NO2,"InChI=1S/C6H13NO2/c1-4(2)3-5(7)6(8)9/h4-5H,3,7H2,1-2H3,(H,8,9)",131.17292,-6.587876320605,0.27211385050000025,6.859990171105,3.8980680779484858
000000858,O=CCCCC1OC1C=CC=C1C=CCC=CC1,C16H20O2,"InChI=1S/C16H20O2/c17-13-6-5-11-15-16(18-15)12-7-10-14-8-3-1-2-4-9-14/h1,3-4,7,9-10,12-13,15-16H,2,5-6,8,11H2",244.3288,-5.73615996854,-0.8108992744899997,4.92526069405,3.2788402993926073
000000860,CCC=CCC=CCC=CCCCCCCCC(=O)O,C18H30O2,"InChI=1S/C18H30O2/c1-2-3-4-5-6-7-8-9-10-11-12-13-14-15-16-17-18(19)20/h3-4,6-7,9-10H,2,5,8,11-17H2,1H3,(H,19,20)",278.4296,-6.18242668336,0.22857563442000028,6.41100231778,4.185106250726975
000000863,NC(=O)CCCCC1SSCC1,C8H15NOS2,"InChI=1S/C8H15NOS2/c9-8(10)4-2-1-3-7-5-6-11-12-7/h7H,1-6H2,(H2,9,10)",205.3408,-5.14839405146,-0.5932081940899998,4.555185857370001,6.26490709170966
000000864,OC(=O)CCCCC1SSCC1,C8H14O2S2,"InChI=1S/C8H14O2S2/c9-8(10)4-2-1-3-7-5-6-11-12-7/h7H,1-6H2,(H,9,10)",206.32556,-5.26268186867,-0.7020537342899997,4.56062813438,6.039032293079579
000000865,NC(C(=O)O)CCCC(C(=O)O)N,C7H14N2O4,"InChI=1S/C7H14N2O4/c8-4(6(10)11)2-1-3-5(9)7(12)13/h4-5H,1-3,8-9H2,(H,10,11)(H,12,13)",190.19706,-7.0205373429,-0.38368052920499984,6.636856813695,1.2189053592449253
000000866,NCCCCC(C(=O)O)N,C6H14N2O2,"InChI=1S/C6H14N2O2/c7-4-2-1-3-5(8)6(9)10/h5H,1-4,7-8H2,(H,9,10)",146.18756,-6.304877916085,0.21496994189500018,6.51984785798,3.4276243013698275
000000867,OC(=O)CC(=O)O,C3H4O4,"InChI=1S/C3H4O4/c4-2(5)1-3(6)7/h1H2,(H,4,5)(H,6,7)",104.06146,-7.556601628385001,-0.9660041692750001,6.5905974591100005,4.6929023961839444
000000868,O=CCC(=O)O,C3H4O3,"InChI=1S/C3H4O3/c4-2-1-3(5)6/h2H,1H2,(H,5,6)",88.06206,-7.230065007785,-1.2027432192100003,6.027321788575,3.393556852159103
000000872,OCC1OC(OCC2OC(O)C(C(C2O)O)O)C(C(C1O)O)O,C12H22O11,"InChI=1S/C12H22O11/c13-1-3-5(14)8(17)10(19)12(23-3)21-2-4-6(15)7(16)9(18)11(20)22-4/h3-20H,1-2H2",342.29648,-6.6940007223,0.7129382883100002,7.40693901061,2.1875981167865364
000000873,OC(=O)CCc1ccccc1O,C9H10O3,"InChI=1S/C9H10O3/c10-8-4-2-1-3-7(8)5-6-9(11)12/h1-4,10H,5-6H2,(H,11,12)",166.1739,-6.10623480522,-0.16054717179499978,5.945687633425,5.599192449304632
000000874,OC(=O)C=C(C(=O)O)C,C5H6O4,"InChI=1S/C5H6O4/c1-3(5(8)9)2-4(6)7/h2H,1H3,(H,6,7)(H,8,9)",130.09874,-7.6736105840999995,-1.6843847345950005,5.989225849504999,0.8295964530499151
000000875,OC(C(C(=O)O)O)C(=O)O,C4H6O6,"InChI=1S/C4H6O6/c5-1(3(7)8)2(6)4(9)10/h1-2,5-6H,(H,7,8)(H,9,10)",150.08684,-7.654562614565,-0.7537553658850005,6.90080724868,2.6100559299735324
000000876,CSCCC(C(=O)O)N,C5H11NO2S,"InChI=1S/C5H11NO2S/c1-9-3-2-4(6)5(7)8/h4H,2-3,6H2,1H3,(H,7,8)",149.21134,-6.5470592430300005,0.1523837562799999,6.69944299931,3.2697338873721824
000000878,CS,CH4S,"InChI=1S/CH4S/c1-2/h2H,1H3",48.10746,-6.413723456285,0.9224659531950001,7.33618940948,1.7397948628378577
000000880,O=CC(=O)C,C3H4O2,"InChI=1S/C3H4O2/c1-3(5)2-4/h2H,1H3",72.06266,-6.740260076885,-1.9320083385499993,4.8082517383350005,2.293047630844375
000000884,OC(=O)CCC(C(=O)O)NC(=O)c1ccc(cc1)N1CC2N(C1)c1c(NC2)[nH]c(nc1=O)N,C20H23N7O6,"InChI=1S/C20H23N7O6/c21-20-24-16-15(18(31)25-20)27-9-26(8-12(27)7-22-16)11-3-1-10(2-4-11)17(30)23-13(19(32)33)5-6-14(28)29/h1-4,12-13H,5-9H2,(H,23,30)(H,28,29)(H,32,33)(H4,21,22,24,25,31)",457.43992,-5.417786763455,-1.0041001083449999,4.41368665511,13.942394413390872
000000887,CO,CH4O,"InChI=1S/CH4O/c1-2/h2H,1H3",32.04186,-7.115777190575001,1.9891522471549994,9.10492943773,1.7029829258480544
000000891,COC(=O)C(=CC(=O)O)CC(=O)O,C7H8O6,"InChI=1S/C7H8O6/c1-13-7(12)4(2-5(8)9)3-6(10)11/h2H,3H2,1H3,(H,8,9)(H,10,11)",188.13482,-7.47768861174,-1.72520181217,5.75248679957,4.01592742093492
000000892,OC1C(O)C(O)C(C(C1O)O)O,C6H12O6,InChI=1S/C6H12O6/c7-1-2(8)4(10)6(12)5(11)3(1)9/h1-12H,180.15588,-6.718490968845001,0.5877659170799996,7.306256885925,2.7897666107359234
000000893,CSCCS(=O)(=O)O,C3H8O3S2,"InChI=1S/C3H8O3S2/c1-7-2-3-8(4,5)6/h2-3H2,1H3,(H,4,5,6)",156.22382,-6.440934841335,0.19592197235999986,6.636856813695,2.3210419228299175