mol_id,SMILES,formula,inchi,mass,HOMO(eV),LUMO(eV),GAP(eV),dipole_moment
000002935,O=C(NCS(=O)(=O)O)CCC(C(=O)O)N,C6H12N2O6S,"InChI=1S/C6H12N2O6S/c7-4(6(10)11)1-2-5(9)8-3-15(12,13)14/h4H,1-3,7H2,(H,8,9)(H,10,11)(H,12,13,14)",240.23428,-6.51984785798,-0.7102171498050005,5.809630708175,3.6259816422670976
000002936,OC1C(OP(=O)(O)O)C(OP(=O)(O)O)C(C(C1O)O)O,C6H14O12P2,"InChI=1S/C6H14O12P2/c7-1-2(8)4(10)6(18-20(14,15)16)5(3(1)9)17-19(11,12)13/h1-10H,(H2,11,12,13)(H2,14,15,16)",340.115682,-7.129382883100001,-0.09251870917000016,7.036864173930001,2.408585370093823
000002937,CCCCCC(CC=C1C(CC=CCCCC(=O)O)C=CC1=O)O,C20H30O4,"InChI=1S/C20H30O4/c1-2-3-6-10-17(21)13-14-18-16(12-15-19(18)22)9-7-4-5-8-11-20(23)24/h4,7,12,14-17,21H,2-3,5-6,8-11,13H2,1H3,(H,23,24)",334.4498,-6.62325112117,-1.9782676931349998,4.644983428035,3.670590650023236
000002939,O=c1[nH]c(=O)n(cc1C)C1C=CC(O1)COP(=O)(OP(=O)(OP(=O)(O)O)O)O,C10H15N2O13P3,"InChI=1S/C10H15N2O13P3/c1-6-4-12(10(14)11-9(6)13)8-3-2-7(23-8)5-22-27(18,19)25-28(20,21)24-26(15,16)17/h2-4,7-8H,5H2,1H3,(H,18,19)(H,20,21)(H,11,13,14)(H2,15,16,17)",464.152983,-6.35113727067,-1.1700895571499998,5.18104771352,2.6213941579796805
000002941,SC(=S)OC1CC2CC1C1C2CCC1,C11H16OS2,"InChI=1S/C11H16OS2/c13-11(14)12-10-5-6-4-9(10)8-3-1-2-7(6)8/h6-10H,1-5H2,(H,13,14)",228.37414,-6.337531578145,-1.2081854962199996,5.129346081925,4.0898089681580485
000002943,COC(=O)c1c(Cl)c(Cl)c(c(c1Cl)Cl)C(=O)OC,C10H6Cl4O4,InChI=1S/C10H6Cl4O4/c1-17-9(15)3-5(11)7(13)4(10(16)18-2)8(14)6(3)12/h1-2H3,331.96424,-6.925297495225,-2.2122856045649995,4.713011890660001,2.025078625899745
000002944,Nc1[nH]c(N)nc(=O)c1,C4H6N4O,"InChI=1S/C4H6N4O/c5-2-1-3(9)8-4(6)7-2/h1H,(H5,5,6,7,8,9)",126.11664,-5.89942827884,-0.10884554019999992,5.79058273864,8.365844418185471
000002946,CN1CCc2c3C1=CC(=O)C(=O)c3n(c2)C,C12H12N2O2,"InChI=1S/C12H12N2O2/c1-13-4-3-7-6-14(2)11-10(7)8(13)5-9(15)12(11)16/h5-6H,3-4H2,1-2H3",216.23588,-5.55656482721,-2.2340547126050003,3.3225101146049996,8.260937784053334
000002947,CN1CCc2c3C1=CC(=O)C(=O)c3[nH]c2,C11H10N2O2,"InChI=1S/C11H10N2O2/c1-13-3-2-6-5-12-10-9(6)7(13)4-8(14)11(10)15/h4-5,12H,2-3H2,1H3",202.2093,-5.624593289835,-2.2639872361599997,3.3606060536750006,8.542241502567052
000002948,COc1c2C(=O)c3ccccc3C(=O)c2cc(c1C=O)O,C16H10O5,"InChI=1S/C16H10O5/c1-21-16-11(7-17)12(18)6-10-13(16)15(20)9-5-3-2-4-8(9)14(10)19/h2-7,18H,1H3",282.2476,-6.47086736489,-2.78100355211,3.68986381278,4.629386783213733
000002949,C#CC1(O)CCC2C1(C)CCC1C2CCC2=Cc3c(CC12C)cno3,C22H27NO2,"InChI=1S/C22H27NO2/c1-4-22(24)10-8-18-16-6-5-15-11-19-14(13-23-25-19)12-20(15,2)17(16)7-9-21(18,22)3/h1,11,13,16-18,24H,5-10,12H2,2-3H3",337.45528,-5.6055453203,-1.0122635238599997,4.59328179644,4.906552053000151
000002950,Oc1cccc2c1C(=O)c1c(C2=O)cccc1O,C14H8O4,"InChI=1S/C14H8O4/c15-9-5-1-3-7-11(9)14(18)12-8(13(7)17)4-2-6-10(12)16/h1-6,15-16H",240.21092,-6.16609985233,-2.680321427425,3.4857784249050003,3.2958217203292413
000002952,O=C1CN(C(=O)N1)N=Cc1ccc(o1)c1ccc(cc1)[N+](=O)[O-],C14H10N4O5,"InChI=1S/C14H10N4O5/c19-13-8-17(14(20)16-13)15-7-11-5-6-12(23-11)9-1-3-10(4-2-9)18(21)22/h1-7H,8H2,(H,16,19,20)",314.253,-5.853168924255001,-2.57419702573,3.2789718985250005,5.612026047102864
000002954,NC(=N)c1ccc(cc1)c1cc2c([nH]1)cc(cc2)C(=N)N,C16H15N5,"InChI=1S/C16H15N5/c17-15(18)10-3-1-9(2-4-10)13-7-11-5-6-12(16(19)20)8-14(11)21-13/h1-8,21H,(H3,17,18)(H3,19,20)",277.3238,-5.53479571917,-1.2136277732299998,4.32116794594,2.180277013006604
000002955,Nc1ccc(cc1)S(=O)(=O)c1ccc(cc1)N,C12H12N2O2S,"InChI=1S/C12H12N2O2S/c13-9-1-5-11(6-2-9)17(15,16)12-7-3-10(14)4-8-12/h1-8H,13-14H2",248.30088,-5.504863195615,-0.6530732411999995,4.8517899544150005,9.050565655449056
000002956,O=C(NC(C(=O)NC(c1ccccc1)C(=O)OC(C)(C)C)C)Cc1cc(F)cc(c1)F,C23H26F2N2O4,"InChI=1S/C23H26F2N2O4/c1-14(26-19(28)12-15-10-17(24)13-18(25)11-15)21(29)27-20(16-8-6-5-7-9-16)22(30)31-23(2,3)4/h5-11,13-14,20H,12H2,1-4H3,(H,26,28)(H,27,29)",432.4603464,-6.430050287315001,-0.7401496733600004,5.689900613955,1.1892983534416417
000002960,NC1=NC(=O)C(=C2CCNC(=O)c3c2cc[nH]3)N1,C11H11N5O2,"InChI=1S/C11H11N5O2/c12-11-15-8(10(18)16-11)6-2-4-14-9(17)7-5(6)1-3-13-7/h1,3,13H,2,4H2,(H,14,17)(H3,12,15,16,18)",245.23734,-5.600103043290001,-1.46397251569,4.136130527600001,6.426472660107254
000002963,N#CC(=Cc1cc2CCCN3c2c(c1)CCC3)C#N,C16H15N3,"InChI=1S/C16H15N3/c17-10-13(11-18)7-12-8-14-3-1-5-19-6-2-4-15(9-12)16(14)19/h7-9H,1-6H2",249.3104,-5.483094087575,-2.1306514494149997,3.3524426381600003,10.333493636552838
000002964,C=CC1(C)CC(=O)C2(C(O1)(C)C(O)C(C1C2(C)C(O)CCC1(C)C)O)O,C20H32O6,"InChI=1S/C20H32O6/c1-7-17(4)10-12(22)20(25)18(5)11(21)8-9-16(2,3)14(18)13(23)15(24)19(20,6)26-17/h7,11,13-15,21,23-25H,1,8-10H2,2-6H3",368.46448,-6.34569499366,-0.829947244025,5.515747749635,1.9942254514023732
000002969,CCCCCCCCCC(=O)O,C10H20O2,"InChI=1S/C10H20O2/c1-2-3-4-5-6-7-8-9-10(11)12/h2-9H2,1H3,(H,11,12)",172.2646,-7.42326584164,0.23673904993500017,7.660004891575,4.2213726735878225
000002970,OCC1(OC(=C)C(C1O)O)n1cnc2c1ncnc2N,C11H13N5O4,"InChI=1S/C11H13N5O4/c1-5-7(18)8(19)11(2-17,20-5)16-4-15-6-9(12)13-3-14-10(6)16/h3-4,7-8,17-19H,1-2H2,(H2,12,13,14)",279.25202,-6.209638068409999,-1.0258692163849998,5.183768852025,3.111140649322849
000002971,CCCCCCCCCCC1=C(C)C(=O)C(=C(C1=O)OC)OC,C19H30O4,"InChI=1S/C19H30O4/c1-5-6-7-8-9-10-11-12-13-15-14(2)16(20)18(22-3)19(23-4)17(15)21/h5-13H2,1-4H3",322.4391,-5.632756705349999,-2.84631087623,2.7864458291199994,1.5188659250700833
000002972,Cn1ccc(=O)c(c1C)O,C7H9NO2,"InChI=1S/C7H9NO2/c1-5-7(10)6(9)3-4-8(5)2/h3-4,10H,1-2H3",139.15186,-5.26268186867,-0.22585449591499973,5.036827372755,8.007114180743645
000002975,OC(=O)CCC(C1CCC2C1(C)C(=O)CC1C2C(=O)CC2C1(C)CCC(=O)C2)C,C24H34O5,"InChI=1S/C24H34O5/c1-13(4-7-21(28)29)16-5-6-17-22-18(12-20(27)24(16,17)3)23(2)9-8-15(25)10-14(23)11-19(22)26/h13-14,16-18,22H,4-12H2,1-3H3,(H,28,29)",402.52376,-6.538895827515001,-1.15376272612,5.385133101395001,4.280415166940936
000002976,CCOC(=O)C(NC(C(=O)N(C1Cc2c(C1)cccc2)CC(=O)O)C)CCc1ccccc1,C26H32N2O5,"InChI=1S/C26H32N2O5/c1-3-33-26(32)23(14-13-19-9-5-4-6-10-19)27-18(2)25(31)28(17-24(29)30)22-15-20-11-7-8-12-21(20)16-22/h4-12,18,22-23,27H,3,13-17H2,1-2H3,(H,29,30)",452.54268,-6.19875351439,-0.31020978957,5.88854372482,4.3597835491462185
000002977,CCCCCc1cc(O)c2c(c1)OC(C1C2CC(=CC1)C)(C)C,C21H30O2,"InChI=1S/C21H30O2/c1-5-6-7-8-15-12-18(22)20-16-11-14(2)9-10-17(16)21(3,4)23-19(20)13-15/h9,12-13,16-17,22H,5-8,10-11H2,1-4H3",314.4617,-5.270845284185,0.497968346415,5.7688136306,2.9832845600647953
000002978,CCCCCc1cc(O)c2c(c1)OC(C1C2C=C(C)CC1)(C)C,C21H30O2,"InChI=1S/C21H30O2/c1-5-6-7-8-15-12-18(22)20-16-11-14(2)9-10-17(16)21(3,4)23-19(20)13-15/h11-13,16-17,22H,5-10H2,1-4H3",314.4617,-5.26268186867,0.21769108039999985,5.4803729490699995,3.486026032569034
000002980,CC(CNCCNCC(N)C)N,C8H22N4,"InChI=1S/C8H22N4/c1-7(9)5-11-3-4-12-6-8(2)10/h7-8,11-12H,3-6,9-10H2,1-2H3",174.28708,-5.7035063064800005,1.7632977512399997,7.46680405772,1.5615125279414188
000002981,N=C1C(=N)c2ccccc2c2c1cccc2,C14H10N2,"InChI=1S/C14H10N2/c15-13-11-7-3-1-5-9(11)10-6-2-4-8-12(10)14(13)16/h1-8,15-16H",206.2426,-6.16065757532,-2.0653441252949998,4.095313450025,3.4839527929435268
000002984,CCCCn1c(=O)c2n(cnc2n(c1=O)CCCC)CC(=O)C,C16H24N4O3,"InChI=1S/C16H24N4O3/c1-4-6-8-19-14-13(18(11-17-14)10-12(3)21)15(22)20(16(19)23)9-7-5-2/h11H,4-10H2,1-3H3",320.38676,-5.831399816215,-1.1673684186450002,4.66403139757,3.3821122491351465
000002985,CCC(C#CC#CC(C=CCCCCCC=C)O)O,C17H24O2,"InChI=1S/C17H24O2/c1-3-5-6-7-8-9-10-14-17(19)15-12-11-13-16(18)4-2/h3,10,14,16-19H,1,4-9H2,2H3",260.37126,-6.49807874994,-0.7129382883100002,5.78514046163,1.0905626835991593
000002986,C=CCCCCCC(C=CC#CC#CC(C=C)O)O,C17H22O2,"InChI=1S/C17H22O2/c1-3-5-6-7-11-14-17(19)15-12-9-8-10-13-16(18)4-2/h3-4,12,15-19H,1-2,5-7,11,14H2",258.35538,-6.065417727644999,-1.2952619283800004,4.770155799264999,0.8028269513568912
000002987,OC1CCC2(C(C1)CCC1C2CC(O)C2(C1CCC2C(CCC(=O)O)C)C)C,C24H40O4,"InChI=1S/C24H40O4/c1-14(4-9-22(27)28)18-7-8-19-17-6-5-15-12-16(25)10-11-23(15,2)20(17)13-21(26)24(18,19)3/h14-21,25-26H,4-13H2,1-3H3,(H,27,28)",392.572,-6.881759279145,0.5333431469800001,7.415102426125,6.4162111521670635
000002988,COc1cc(CC2C(=O)OCC2Cc2ccc3c(c2)OCO3)cc(c1OC)OC,C22H24O7,"InChI=1S/C22H24O7/c1-24-19-9-14(10-20(25-2)21(19)26-3)7-16-15(11-27-22(16)23)6-13-4-5-17-18(8-13)29-12-28-17/h4-5,8-10,15-16H,6-7,11-12H2,1-3H3",400.42176,-5.6164298743200005,-0.11973009422000036,5.4966997801,4.473541353405487
000002989,C=CC1C(OC=C2C1CC1N(C2=O)Cc2c1nc1ccccc1c2)OC1OC(CO)C(C(C1O)O)O,C26H28N2O8,"InChI=1S/C26H28N2O8/c1-2-14-15-8-18-20-13(7-12-5-3-4-6-17(12)27-20)9-28(18)24(33)16(15)11-34-25(14)36-26-23(32)22(31)21(30)19(10-29)35-26/h2-7,11,14-15,18-19,21-23,25-26,29-32H,1,8-10H2",496.50912,-6.32936816263,-1.5483278093449995,4.781040353285,3.4909285795517215
000002991,CCC(=O)OC1(CCC2C1(C)CC(O)C1C2CCC2=CC(=O)C=CC12C)C(=O)C,C24H32O5,"InChI=1S/C24H32O5/c1-5-20(28)29-24(14(2)25)11-9-18-17-7-6-15-12-16(26)8-10-22(15,3)21(17)19(27)13-23(18,24)4/h8,10,12,17-19,21,27H,5-7,9,11,13H2,1-4H3",400.50788,-6.17698440635,-1.2680505433300002,4.90893386302,7.710145964966033
000002992,C=CC(C1OC1C=CC1OC1C(O)C)O,C11H16O4,"InChI=1S/C11H16O4/c1-3-7(13)11-9(15-11)5-4-8-10(14-8)6(2)12/h3-13H,1H2,2H3",212.24234,-6.740260076885,-0.1795951413300001,6.560664935555,1.8420299253948076
000002994,NCC(=O)NCC(=O)NC(C(=O)NC(C(=O)O)CC(C)C)Cc1ccccc1,C19H28N4O5,"InChI=1S/C19H28N4O5/c1-12(2)8-15(19(27)28)23-18(26)14(9-13-6-4-3-5-7-13)22-17(25)11-21-16(24)10-20/h3-7,12,14-15H,8-11,20H2,1-2H3,(H,21,24)(H,22,25)(H,23,26)(H,27,28)",392.44942,-6.288551085055,-0.5115740389400001,5.776977046115,7.715194558016926
000002995,CNCCCN1c2ccccc2CCc2c1cccc2,C18H22N2,"InChI=1S/C18H22N2/c1-19-13-6-14-20-17-9-4-2-7-15(17)11-12-16-8-3-5-10-18(16)20/h2-5,7-10,19H,6,11-14H2,1H3",266.38068,-5.24635503764,-0.08435529365500027,5.161999743985,1.6376327784717182
000002997,O=C1CN=C(c2c(N1)ccc(c2)Cl)c1ccccc1,C15H11ClN2O,"InChI=1S/C15H11ClN2O/c16-11-6-7-13-12(8-11)15(17-9-14(19)18-13)10-4-2-1-3-5-10/h1-8H,9H2,(H,18,19)",270.71364,-6.272224254025001,-1.6109139949599998,4.661310259065001,2.811007347071864
000002998,CCCCCCCCC(=O)NCc1ccc(c(c1)OC)O,C17H27NO3,"InChI=1S/C17H27NO3/c1-3-4-5-6-7-8-9-17(20)18-13-14-10-11-15(19)16(12-14)21-2/h10-12,19H,3-9,13H2,1-2H3,(H,18,20)",293.40118,-5.43139245598,0.11156667870499959,5.542959134685,2.3269637801723513
000002999,C#CC1(O)C=CC2C1(CC)CCC1C2CCC2=CC(=O)CCC12,C21H26O2,"InChI=1S/C21H26O2/c1-3-20-11-9-17-16-8-6-15(22)13-14(16)5-7-18(17)19(20)10-12-21(20,23)4-2/h2,10,12-13,16-19,23H,3,5-9,11H2,1H3",310.42994,-6.22052262243,-1.1455993106050002,5.074923311825,4.147643807983757
000003000,OCC(=O)C1C(C)CC2C1(C)CC(O)C1(C2CCC2=CC(=O)C=CC12C)F,C22H29FO4,"InChI=1S/C22H29FO4/c1-12-8-16-15-5-4-13-9-14(25)6-7-21(13,3)22(15,23)18(27)10-20(16,2)19(12)17(26)11-24/h6-7,9,12,15-16,18-19,24,27H,4-5,8,10-11H2,1-3H3",376.4616632,-6.26950311552,-1.4013863300749998,4.868116785445,4.323757749400283
000003001,CC(=O)OCC(=O)C1CCC2C1(C)CCC1C2CCC2=CC(=O)CCC12C,C23H32O4,"InChI=1S/C23H32O4/c1-14(24)27-13-21(26)20-7-6-18-17-5-4-15-12-16(25)8-10-22(15,2)19(17)9-11-23(18,20)3/h12,17-20H,4-11,13H2,1-3H3",372.49778,-6.255897422995,-1.1782529726649997,5.07764445033,5.07528987472233
000003003,OCC(=O)C1(O)C(C)CC2C1(C)CC(O)C1(C2CCC2=CC(=O)C=CC12C)F,C22H29FO5,"InChI=1S/C22H29FO5/c1-12-8-16-15-5-4-13-9-14(25)6-7-19(13,2)21(15,23)17(26)10-20(16,3)22(12,28)18(27)11-24/h6-7,9,12,15-17,24,26,28H,4-5,8,10-11H2,1-3H3",392.4610632,-6.174263267845,-1.6789424575850003,4.49532081026,8.509330053190439
000003007,CC(Cc1ccccc1)N,C9H13N,"InChI=1S/C9H13N/c1-8(10)7-9-5-3-2-4-6-9/h2-6,8H,7,10H2,1H3",135.20622,-5.94296649492,0.027211385050000203,5.9701778799700005,1.1519756234803755
000003008,COc1ccc2c(c1)C13CCCCC3C(C2)N(CC1)C,C18H25NO,"InChI=1S/C18H25NO/c1-19-10-9-18-8-4-3-5-15(18)17(19)11-13-6-7-14(20-2)12-16(13)18/h6-7,12,15,17H,3-5,8-11H2,1-2H3",271.3972,-5.390575378405,0.14966261777500023,5.54023799618,0.9334731400709931
000003009,NCCCC(C(=O)O)(C(F)F)N,C6H12F2N2O2,"InChI=1S/C6H12F2N2O2/c7-4(8)6(10,5(11)12)2-1-3-9/h4H,1-3,9-10H2,(H,11,12)",182.1684864,-6.56338607406,0.04353821607999997,6.60692429014,5.438225312141545
000003010,CCCCCCCCCCNc1cc(CO)c2c(c1)[nH]cc2,C19H30N2O,"InChI=1S/C19H30N2O/c1-2-3-4-5-6-7-8-9-11-20-17-13-16(15-22)18-10-12-21-19(18)14-17/h10,12-14,20-22H,2-9,11,15H2,1H3",302.4543,-4.57695496541,0.144220340765,4.721175306175,3.629675905051166
000003011,CCCCCC=CCC=CCC=CCCCCCCC(=O)O,C20H34O2,"InChI=1S/C20H34O2/c1-2-3-4-5-6-7-8-9-10-11-12-13-14-15-16-17-18-19-20(21)22/h6-7,9-10,12-13H,2-5,8,11,14-19H2,1H3,(H,21,22)",306.48276,-6.168820990835,0.22585449591499973,6.39467548675,4.287595928315074
000003012,Fc1ccc(cc1)C(=C1CCN(CC1)CCc1c(C)nc2n(c1=O)ccs2)c1ccccc1,C27H26FN3OS,"InChI=1S/C27H26FN3OS/c1-19-24(26(32)31-17-18-33-27(31)29-19)13-16-30-14-11-22(12-15-30)25(20-5-3-2-4-6-20)21-7-9-23(28)10-8-21/h2-10,17-18H,11-16H2,1H3",459.5782432,-5.41506562495,-1.3469635599750003,4.068102064975,2.63333392474217
000003014,CCCCCCCCCCCCCOC(=O)C1CCC(=O)OC1CO,C20H36O5,"InChI=1S/C20H36O5/c1-2-3-4-5-6-7-8-9-10-11-12-15-24-20(23)17-13-14-19(22)25-18(17)16-21/h17-18,21H,2-16H2,1H3",356.49684,-7.164757683665,-0.29388295854000024,6.870874725125,4.9096663034183905
000003015,O=C1C=C2C(=CC3C(C2(C2C1C2)C)CCC1(C3CCC1(O)C(=O)C)C)Cl,C22H27ClO3,"InChI=1S/C22H27ClO3/c1-11(24)22(26)7-5-14-12-9-18(23)17-10-19(25)13-8-16(13)21(17,3)15(12)4-6-20(14,22)2/h9-10,12-16,26H,4-8H2,1-3H3",374.90098,-4.688521644115,-2.152420557455,2.53610108666,6.344940885400982
000003016,Clc1ccc2c(c1)C(=NCC(=O)N2C)c1ccccc1,C16H13ClN2O,"InChI=1S/C16H13ClN2O/c1-19-14-8-7-12(17)9-13(14)16(18-10-15(19)20)11-5-3-2-4-6-11/h2-9H,10H2,1H3",284.74022,-6.2041957914,-1.5646546403750001,4.639541151025,2.8363161493162217
000003017,CCOP(=S)(Oc1cc(C)nc(n1)C(C)C)OCC,C12H21N2O3PS,"InChI=1S/C12H21N2O3PS/c1-6-15-18(19,16-7-2)17-11-8-10(5)13-12(14-11)9(3)4/h8-9H,6-7H2,1-5H3",304.345501,-6.065417727644999,-1.1973009422,4.868116785444999,4.0629958204700385
000003018,CCOC(=O)NC1=C(C2CC2)C(=O)C(=C(C1=O)C1CC1)NC(=O)OCC,C18H22N2O6,"InChI=1S/C18H22N2O6/c1-3-25-17(23)19-13-11(9-5-6-9)16(22)14(20-18(24)26-4-2)12(15(13)21)10-7-8-10/h9-10H,3-8H2,1-2H3,(H,19,23)(H,20,24)",362.37708,-6.00827381904,-2.4735149010449997,3.5347589179950005,2.7340503279870325
000003019,Clc1ccc2c(c1)S(=O)(=O)N=C(N2)C,C8H7ClN2O2S,"InChI=1S/C8H7ClN2O2S/c1-5-10-7-3-2-6(9)4-8(7)14(12,13)11-5/h2-4H,1H3,(H,10,11)",230.67138,-6.48175191891,-1.34968469848,5.13206722043,8.342381915181958
000003021,NCC1CCC(C(O1)OC1C(N)CC(C(C1O)OC1OC(CO)C(C(C1O)N)O)N)N,C18H37N5O8,"InChI=1S/C18H37N5O8/c19-4-6-1-2-7(20)17(28-6)30-15-8(21)3-9(22)16(14(15)27)31-18-13(26)11(23)12(25)10(5-24)29-18/h6-18,24-27H,1-5,19-23H2",451.51508,-5.7606502150850005,1.074849709475,6.8354999245600006,3.9314826146905446
000003022,OC(=O)c1cccc2c1oc1c2cccc1C(=O)O,C14H8O5,"InChI=1S/C14H8O5/c15-13(16)9-5-1-3-7-8-4-2-6-10(14(17)18)12(8)19-11(7)9/h1-6H,(H,15,16)(H,17,18)",256.21032,-6.976999126820001,-2.244939266625,4.732059860195001,7.871853343449559
000003023,c1ccc2c(c1)sc1c2cccc1,C12H8S,InChI=1S/C12H8S/c1-3-7-11-9(5-1)10-6-2-4-8-12(10)13-11/h1-8H,184.25692,-5.782419323125,-0.9660041692750001,4.8164151538499995,0.9356310509228517
000003025,CCCCOc1nc2ccccc2c(c1)C(=O)NCCN(CC)CC,C20H29N3O2,"InChI=1S/C20H29N3O2/c1-4-7-14-25-19-15-17(16-10-8-9-11-18(16)22-19)20(24)21-12-13-23(5-2)6-3/h8-11,15H,4-7,12-14H2,1-3H3,(H,21,24)",343.46316,-5.921197386879999,-1.2571659893099998,4.66403139757,4.115087325913995
000003026,CCCCOC(=O)c1ccccc1C(=O)OCCCC,C16H22O4,"InChI=1S/C16H22O4/c1-3-5-11-19-15(17)13-9-7-8-10-14(13)16(18)20-12-6-4-2/h7-10H,3-6,11-12H2,1-2H3",278.34348,-7.03142189692,-1.2136277732299998,5.817794123690001,3.190665080644786
000003028,CCCC(=O)OC1C2OP(=O)(OC2OC1N1C=NC2C1N=C(NC(=O)CCC)NC2=O)O,C17H24N5O9P,"InChI=1S/C17H24N5O9P/c1-3-5-8(23)19-17-20-13-10(14(25)21-17)18-7-22(13)15-11(28-9(24)6-4-2)12-16(29-15)31-32(26,27)30-12/h7,10-13,15-16H,3-6H2,1-2H3,(H,26,27)(H2,19,20,21,23,25)",473.374321,-6.40556004077,-1.4122708840950002,4.993289156675,13.166549422909977
000003030,COc1c(Cl)ccc(c1C(=O)O)Cl,C8H6Cl2O3,"InChI=1S/C8H6Cl2O3/c1-13-7-5(10)3-2-4(9)6(7)8(11)12/h2-3H,1H3,(H,11,12)",221.03744,-6.326647024125,-1.3061464824,5.020500541725,1.3015873009295227
000003031,N#Cc1c(Cl)cccc1Cl,C7H3Cl2N,InChI=1S/C7H3Cl2N/c8-6-2-1-3-7(9)5(6)4-10/h1-3H,172.01142,-7.32530485546,-1.9374506155600004,5.387854239899999,5.451236808917221
000003033,OC(=O)Cc1ccccc1Nc1c(Cl)cccc1Cl,C14H11Cl2NO2,"InChI=1S/C14H11Cl2NO2/c15-10-5-3-6-11(16)14(10)17-12-7-2-1-4-9(12)8-13(18)19/h1-7,17H,8H2,(H,18,19)",296.14864,-5.575612796745,-0.6694000722300002,4.906212724515,3.093708772602392
000003034,C=C(NC(=O)c1nc(Cl)c(nc1N)N)NCc1ccc(cc1Cl)Cl,C14H13Cl3N6O,"InChI=1S/C14H13Cl3N6O/c1-6(20-5-7-2-3-8(15)4-9(7)16)21-14(24)10-12(18)23-13(19)11(17)22-10/h2-4,20H,1,5H2,(H,21,24)(H4,18,19,23)",387.65162,-5.015058264715,-1.6544522110399997,3.360606053675,5.606488438638039
000003035,ClC(=C(c1ccc(cc1)Cl)c1ccc(cc1)Cl)Cl,C14H8Cl4,InChI=1S/C14H8Cl4/c15-11-5-1-9(2-6-11)13(14(17)18)10-3-7-12(16)8-4-10/h1-8H,318.02532,-6.19875351439,-1.3442424214699997,4.85451109292,0.11592088768207394
000003036,ClC(C(c1ccc(cc1)Cl)c1ccc(cc1)Cl)(Cl)Cl,C14H9Cl5,"InChI=1S/C14H9Cl5/c15-11-5-1-9(2-6-11)13(14(17,18)19)10-3-7-12(16)8-4-10/h1-8,13H",354.48626,-6.55794379705,-1.10478223303,5.45316156402,1.077981172256269
000003037,Oc1ccc(cc1Cc1cc(Cl)ccc1O)Cl,C13H10Cl2O2,"InChI=1S/C13H10Cl2O2/c14-10-1-3-12(16)8(6-10)5-9-7-11(15)2-4-13(9)17/h1-4,6-7,16-17H,5H2",269.1233,-5.684458336945,-0.8489952135600003,4.835463123385,5.024761894056473
000003038,Clc1cc(cc(c1Cl)S(=O)(=O)N)S(=O)(=O)N,C6H6Cl2N2O4S2,"InChI=1S/C6H6Cl2N2O4S2/c7-4-1-3(15(9,11)12)2-5(6(4)8)16(10,13)14/h1-2H,(H2,9,11,12)(H2,10,13,14)",305.15884,-7.409660149115,-2.1524205574550006,5.257239591659999,0.36956537981526355
000003039,COP(=O)(OC=C(Cl)Cl)OC,C4H7Cl2O4P,"InChI=1S/C4H7Cl2O4P/c1-8-11(7,9-2)10-3-4(5)6/h3H,1-2H3",220.975741,-6.65046250622,-0.30748865106500034,6.342973855155,2.7733909888347874
000003041,OC(=O)C1N2C(=O)C(C2SC1(C)C)NC(=O)c1c(C)onc1c1c(Cl)cccc1Cl,C19H17Cl2N3O5S,"InChI=1S/C19H17Cl2N3O5S/c1-7-10(12(23-29-7)11-8(20)5-4-6-9(11)21)15(25)22-13-16(26)24-14(18(27)28)19(2,3)30-17(13)24/h4-6,13-14,17H,1-3H3,(H,22,25)(H,27,28)",470.32638,-6.865432448115,-1.3088676209049996,5.556564827210001,5.286708666756851
000003042,CCN(CCOC(=O)C1(CCCCC1)C1CCCCC1)CC,C19H35NO2,"InChI=1S/C19H35NO2/c1-3-20(4-2)15-16-22-18(21)19(13-9-6-10-14-19)17-11-7-5-8-12-17/h17H,3-16H2,1-2H3",309.4867,-5.7143908605,0.31293092807499967,6.027321788575,1.258185136564965
000003043,OCC1CCC(O1)n1cnc2c1[nH]cnc2=O,C10H12N4O3,"InChI=1S/C10H12N4O3/c15-3-6-1-2-7(17-6)14-5-13-8-9(14)11-4-12-10(8)16/h4-7,15H,1-3H2,(H,11,12,16)",236.22728,-5.98106243399,-0.7836878894400003,5.19737454455,10.895423382830105
000003044,OC1CC(OC1C)n1cnc2c1ncnc2N,C10H13N5O2,"InChI=1S/C10H13N5O2/c1-5-6(16)2-7(17-5)15-4-14-8-9(11)12-3-13-10(8)15/h3-7,16H,2H2,1H3,(H2,11,12,13)",235.24252,-5.809630708175,-0.5877659170800005,5.221864791094999,2.028840928292063
000003045,ONC(=O)c1ccc(c(c1)O)O,C7H7NO4,"InChI=1S/C7H7NO4/c9-5-2-1-4(3-6(5)10)7(11)8-12/h1-3,9-10,12H,(H,8,11)",169.13478,-5.94840877193,-0.8381106595399999,5.11029811239,4.493346525747374
000003047,N#CSc1ccc(c(c1)S(=O)(=O)O)C=Cc1ccc(cc1S(=O)(=O)O)N=C=S,C16H10N2O6S4,"InChI=1S/C16H10N2O6S4/c17-9-26-14-6-4-12(16(8-14)28(22,23)24)2-1-11-3-5-13(18-10-25)7-15(11)27(19,20)21/h1-8H,(H,19,20,21)(H,22,23,24)",454.5204,-6.664068198745,-2.14425714194,4.5198110568050005,1.4713539303097676
000003048,ClC1=C(Cl)C2(C(C1(Cl)C1C2C2CC1C1C2O1)(Cl)Cl)Cl,C12H8Cl6O,"InChI=1S/C12H8Cl6O/c13-8-9(14)11(16)5-3-1-2(6-7(3)19-6)4(5)10(8,15)12(11,17)18/h2-7H,1H2",380.90932,-6.49807874994,-0.808178135985,5.689900613955,5.484658365226863
000003049,CC=C(C(=CC)c1ccc(cc1)O)c1ccc(cc1)O,C18H18O2,"InChI=1S/C18H18O2/c1-3-17(13-5-9-15(19)10-6-13)18(4-2)14-7-11-16(20)12-8-14/h3-12,19-20H,1-2H3",266.33432,-5.49125750309,-0.11973009422000036,5.37152740887,1.768845458695869