mol_id,SMILES,formula,inchi,mass,HOMO(eV),LUMO(eV),GAP(eV),dipole_moment
000000385,OC(=O)CCCCCC(=O)O,C7H12O4,"InChI=1S/C7H12O4/c8-6(9)4-2-1-3-5-7(10)11/h1-5H2,(H,8,9)(H,10,11)",160.16778,-7.600139844465,0.035374800565000086,7.63551464503,3.548243826131598
000000389,NC(C(=O)O)CCCN,C5H12N2O2,"InChI=1S/C5H12N2O2/c6-3-1-2-4(7)5(8)9/h4H,1-3,6-7H2,(H,8,9)",132.16098,-6.2232437609349995,0.808178135985,7.0314218969199995,6.028767890763834
000000391,CCC(=CCCCC(CCOP(=O)(OP(=O)(O)O)O)C)C,C12H26O7P2,"InChI=1S/C12H26O7P2/c1-4-11(2)7-5-6-8-12(3)9-10-18-21(16,17)19-20(13,14)15/h7,12H,4-6,8-10H2,1-3H3,(H,16,17)(H2,13,14,15)",344.278162,-6.0953502512,0.0,6.0953502512,2.1444938869929193
000000392,NCCCC(CC(=O)O)N,C6H14N2O2,"InChI=1S/C6H14N2O2/c7-3-1-2-5(8)4-6(9)10/h5H,1-4,7-8H2,(H,9,10)",146.18756,-6.2014746528949996,0.05170163159499985,6.253176284489999,4.952257316323537
000000393,OC(C(=O)C(C(=O)O)O)C(COP(=O)(O)O)O,C6H11O10P,"InChI=1S/C6H11O10P/c7-2(1-16-17(13,14)15)3(8)4(9)5(10)6(11)12/h2-3,5,7-8,10H,1H2,(H,11,12)(H2,13,14,15)",274.119301,-6.960672295790001,-1.68166359609,5.279008699700001,3.0480723106340504
000000397,NC(=O)Cc1c[nH]c2c1cccc2,C10H10N2O,"InChI=1S/C10H10N2O/c11-10(13)5-7-6-12-9-4-2-1-3-8(7)9/h1-4,6,12H,5H2,(H2,11,13)",174.1992,-5.575612796745,-0.4625935458499999,5.113019250895,4.258330724270603
000000398,CC([N+](=O)[O-])C,C3H7NO2,"InChI=1S/C3H7NO2/c1-3(2)4(5)6/h3H,1-2H3",89.09318,-7.850484586925,-1.59458716393,6.255897422995,3.6865135225296544
000000399,OC(=O)C=CC(=CC(=O)O)C(=O)O,C7H6O6,"InChI=1S/C7H6O6/c8-5(9)2-1-4(7(12)13)3-6(10)11/h1-3H,(H,8,9)(H,10,11)(H,12,13)",186.11894,-7.58109187493,-2.51977425563,5.0613176193000005,3.464126415411828
000000400,O=CNc1ccccc1C=O,C8H7NO2,"InChI=1S/C8H7NO2/c10-5-7-3-1-2-4-8(7)9-6-11/h1-6H,(H,9,11)",149.14668,-6.307599054590001,-1.9782676931349998,4.329331361455001,5.27303739051583
000000401,NC1CONC1=O,C3H6N2O2,"InChI=1S/C3H6N2O2/c4-2-1-7-5-3(2)6/h2H,1,4H2,(H,5,6)",102.09194,-6.087186835685,-0.26395043498500037,5.8232364007,3.4511349284554202
000000402,S,H2S,InChI=1S/H2S/h1H2,34.08088,-7.113056052070001,0.6122561636250001,7.725312215695001,1.439428704803055
000000403,Nc1ccc(cc1)O,C6H7NO,"InChI=1S/C6H7NO/c7-5-1-3-6(8)4-2-5/h1-4,8H,7H2",109.12588,-4.900770447505001,0.10068212468500004,5.001452572190001,1.9969957119017558
000000404,ONCCCCC(C(=O)O)N,C6H14N2O3,"InChI=1S/C6H14N2O3/c7-5(6(9)10)3-1-2-4-8-11/h5,8,11H,1-4,7H2,(H,9,10)",162.18696,-6.24773400748,0.18775855684499998,6.435492564325,3.1182027132221535
000000405,CC(CCCC(C1CCC2C1(C)CCC1C2C(O)C=C2C1(C)CCC(C2)O)C)C,C27H46O2,"InChI=1S/C27H46O2/c1-17(2)7-6-8-18(3)21-9-10-22-25-23(12-14-27(21,22)5)26(4)13-11-20(28)15-19(26)16-24(25)29/h16-18,20-25,28-29H,6-15H2,1-5H3",402.65294,-6.283108808045,0.3047675125599998,6.587876320605,2.4744820167188526
000000407,OP(=O)O,H3O3P,"InChI=1S/H3O3P/c1-4(2)3/h4H,(H2,1,2,3)",81.995781,-8.002868343205,0.6802846262499997,8.683152969455,1.6948460245780441
000000408,O=C1CCC(N1C)c1cccnc1,C10H12N2O,"InChI=1S/C10H12N2O/c1-12-9(4-5-10(12)13)8-3-2-6-11-7-8/h2-3,6-7,9H,4-5H2,1H3",176.21508,-6.5252901349900005,-0.9632830307699995,5.562007104220001,1.7313920640715668
000000409,[O-][N+]1(C)CCCC1c1cccnc1,C10H14N2O,"InChI=1S/C10H14N2O/c1-12(13)7-3-5-10(12)9-4-2-6-11-8-9/h2,4,6,8,10H,3,5,7H2,1H3",178.23096,-5.270845284185,-0.454430130335,4.81641515385,5.932482158350668
000000412,C1CNC(C1)c1cccnc1,C9H12N2,"InChI=1S/C9H12N2/c1-3-8(7-10-5-1)9-4-2-6-11-9/h1,3,5,7,9,11H,2,4,6H2",148.20498,-6.12256163625,-0.4898049309000001,5.63275670535,3.727260813723397
000000413,O=C1CCC(N1)c1cccnc1,C9H10N2O,"InChI=1S/C9H10N2O/c12-9-4-3-8(11-9)7-2-1-5-10-6-7/h1-2,5-6,8H,3-4H2,(H,11,12)",162.1885,-6.696721860805001,-0.9632830307700004,5.733438830035,2.000536614792641
000000414,O=C1C(O)CC(N1C)c1cccnc1,C10H12N2O2,"InChI=1S/C10H12N2O2/c1-12-8(5-9(13)10(12)14)7-3-2-4-11-6-7/h2-4,6,8-9,13H,5H2,1H3",192.21448,-6.66134706024,-1.06124401695,5.60010304329,2.2151843508794022
000000415,O=C1CCC(N1C)(O)c1cccnc1,C10H12N2O2,"InChI=1S/C10H12N2O2/c1-12-9(13)4-5-10(12,14)8-3-2-6-11-7-8/h2-3,6-7,14H,4-5H2,1H3",192.21448,-6.7484234924,-0.8898122911349997,5.858611201265,1.326075920469865
000000416,OC(=O)C1OC(OC2CC(N(C2=O)C)c2cccnc2)C(C(C1O)O)O,C16H20N2O8,"InChI=1S/C16H20N2O8/c1-18-8(7-3-2-4-17-6-7)5-9(14(18)22)25-16-12(21)10(19)11(20)13(26-16)15(23)24/h2-4,6,8-13,16,19-21H,5H2,1H3,(H,23,24)",368.3386,-6.87359586363,-1.1864163881800005,5.68717947545,6.0686106423675765
000000417,OC(=O)C=CC(=CC(=O)O)Cl,C6H5ClO4,"InChI=1S/C6H5ClO4/c7-4(3-6(10)11)1-2-5(8)9/h1-3H,(H,8,9)(H,10,11)",176.5545,-7.306256885925,-2.2830352056950005,5.02322168023,5.872137361167653
000000418,OC1C=CC=CC1O,C6H8O2,InChI=1S/C6H8O2/c7-5-3-1-2-4-6(5)8/h1-8H,112.12652,-6.23140717645,-1.1918586651899998,5.0395485112600005,2.8748116931632235
000000419,OC(=O)C=CC(=O)CC(=O)O,C6H6O5,"InChI=1S/C6H6O5/c7-4(3-6(10)11)1-2-5(8)9/h1-2H,3H2,(H,8,9)(H,10,11)",158.10884,-7.556601628385001,-2.2911986212099995,5.265403007175001,4.878889389898176
000000420,CC(CCCC(C1CCC2C1(C)CCC1C2=CCC2C1(C)CCC(C2)O)C)C,C27H46O,"InChI=1S/C27H46O/c1-18(2)7-6-8-19(3)23-11-12-24-22-10-9-20-17-21(28)13-15-26(20,4)25(22)14-16-27(23,24)5/h10,18-21,23-25,28H,6-9,11-17H2,1-5H3",386.65354,-6.06269658914,0.7564765043900001,6.81917309353,1.374134974939507
000000421,SCCC(CCCCC(=O)O)S,C8H16O2S2,"InChI=1S/C8H16O2S2/c9-8(10)4-2-1-3-7(12)5-6-11/h7,11-12H,1-6H2,(H,9,10)",208.34144,-6.48175191891,0.12789350973500024,6.609645428645,2.672641067930185
000000422,OC(C(C(C(C(=O)O)O)O)O)COP(=O)(O)O,C6H13O10P,"InChI=1S/C6H13O10P/c7-2(1-16-17(13,14)15)3(8)4(9)5(10)6(11)12/h2-5,7-10H,1H2,(H,11,12)(H2,13,14,15)",276.135181,-7.20013248423,-0.46531468435500045,6.734817799875,1.0573587516548013
000000423,CC(=O)CC(C(=O)O)N,C5H9NO3,"InChI=1S/C5H9NO3/c1-3(7)2-4(6)5(8)9/h4H,2,6H2,1H3,(H,8,9)",131.12986,-6.859990171105,-0.7455919503699997,6.1143982207350005,2.0463112571165705
000000424,OC(=O)CC(C(=O)O)N,C4H7NO4,"InChI=1S/C4H7NO4/c5-2(4(8)9)1-3(6)7/h2H,1,5H2,(H,6,7)(H,8,9)",133.10268,-6.892643833165001,-0.7510342273799999,6.141609605785001,4.618418960697805
000000425,Oc1ccc(cc1)C=CC(=O)c1ccc(cc1O)O,C15H12O4,"InChI=1S/C15H12O4/c16-11-4-1-10(2-5-11)3-8-14(18)13-7-6-12(17)9-15(13)19/h1-9,16-17,19H",256.25338,-5.74704452256,-1.9156815075200004,3.83136301504,3.713007869166722
000000426,OC(=O)CCC(C(=O)O)NC(C(=O)O)CCCN=C(N)N,C11H20N4O6,"InChI=1S/C11H20N4O6/c12-11(13)14-5-1-2-6(9(18)19)15-7(10(20)21)3-4-8(16)17/h6-7,15H,1-5H2,(H,16,17)(H,18,19)(H,20,21)(H4,12,13,14)",304.2997,-6.206916929905,-0.5796025015649997,5.62731442834,5.5006715399349195
000000427,OC(=O)C(NC(C(=O)O)C)CCCN=C(N)N,C9H18N4O4,"InChI=1S/C9H18N4O4/c1-5(7(14)15)13-6(8(16)17)3-2-4-12-9(10)11/h5-6,13H,2-4H2,1H3,(H,14,15)(H,16,17)(H4,10,11,12)",246.26362,-5.839563231730001,-0.6830057647550003,5.156557466975,2.4288757325884336
000000428,NCCCN,C3H10N2,InChI=1S/C3H10N2/c4-2-1-3-5/h1-5H2,74.1249,-6.103513666715,2.340179114299999,8.443692781014999,0.9859882546531678
000000429,OCC(C(C(CN1C2=NC(=O)NC(=O)C2Nc2c1cc(C)c(c2)C)O)O)O,C17H22N4O6,"InChI=1S/C17H22N4O6/c1-7-3-9-10(4-8(7)2)21(5-11(23)14(25)12(24)6-22)15-13(18-9)16(26)20-17(27)19-15/h3-4,11-14,18,22-25H,5-6H2,1-2H3,(H,20,26,27)",378.37978,-5.733438830035,-1.8340473523699998,3.8993914776650005,5.176527060167367
000000432,CN1CCCC1(O)c1cccnc1,C10H14N2O,"InChI=1S/C10H14N2O/c1-12-7-3-5-10(12,13)9-4-2-6-11-8-9/h2,4,6,8,13H,3,5,7H2,1H3",178.23096,-6.000110403525,-0.6394675486750003,5.36064285485,3.952984893322134
000000433,OCN1C(=O)CCC1c1cccnc1,C10H12N2O2,"InChI=1S/C10H12N2O2/c13-7-12-9(3-4-10(12)14)8-2-1-5-11-6-8/h1-2,5-6,9,13H,3-4,7H2",192.21448,-6.696721860805001,-0.9605618922649999,5.736159968540001,2.183671341718117
000000434,CNCCCC(=O)c1cccnc1,C10H14N2O,"InChI=1S/C10H14N2O/c1-11-6-3-5-10(13)9-4-2-7-12-8-9/h2,4,7-8,11H,3,5-6H2,1H3",178.23096,-5.880380309305,-1.8667010144299994,4.013679294875001,1.4614528995824667
000000435,NC(=O)CCC(=O)c1cccnc1,C9H10N2O2,"InChI=1S/C9H10N2O2/c10-9(13)4-3-8(12)7-2-1-5-11-6-7/h1-2,5-6H,3-4H2,(H2,10,13)",178.1879,-6.555222658545,-1.46397251569,5.091250142855,3.04041943416184
000000436,CNC(=O)CCC(=O)c1cccnc1,C10H12N2O2,"InChI=1S/C10H12N2O2/c1-11-10(14)5-4-9(13)8-3-2-6-12-7-8/h2-3,6-7H,4-5H2,1H3,(H,11,14)",192.21448,-6.767471461935,-1.7877879977850002,4.97968346415,2.7827685978192656
000000437,OC(=O)CCC(=O)c1cccnc1,C9H9NO3,"InChI=1S/C9H9NO3/c11-8(3-4-9(12)13)7-2-1-5-10-6-7/h1-2,5-6H,3-4H2,(H,12,13)",179.17266,-7.012373927385,-2.5088897016100002,4.503484225775,6.177913046040467
000000438,OC(=O)CCC(c1cccnc1)O,C9H11NO3,"InChI=1S/C9H11NO3/c11-8(3-4-9(12)13)7-2-1-5-10-6-7/h1-2,5-6,8,11H,3-4H2,(H,12,13)",181.18854,-7.121219467585,-1.0503594629300004,6.070860004655,5.62836367296446
000000439,OC(=O)CC=Cc1cccnc1,C9H9NO2,"InChI=1S/C9H9NO2/c11-9(12)5-1-3-8-4-2-6-10-7-8/h1-4,6-7H,5H2,(H,11,12)",163.17326,-6.762029184925,-1.4394822691449995,5.32254691578,5.51491916016137
000000440,CC(CCCC(C1CCC2C1(C)CCC1C2CCC2=CC(=O)CCC12C)C)C,C27H44O,"InChI=1S/C27H44O/c1-18(2)7-6-8-19(3)23-11-12-24-22-10-9-20-17-21(28)13-15-26(20,4)25(22)14-16-27(23,24)5/h17-19,22-25H,6-16H2,1-5H3",384.63766,-6.17698440635,-1.0884554020000001,5.08852900435,4.587171444339747
000000441,CC(CC(=O)O)O,C4H8O3,"InChI=1S/C4H8O3/c1-3(5)2-4(6)7/h3,5H,2H2,1H3,(H,6,7)",104.10452,-7.178363376189999,0.21769108039999985,7.396054456589999,4.095456918698205
000000442,OC(C(C(C(=O)C(=O)O)O)O)COP(=O)(O)O,C6H11O10P,"InChI=1S/C6H11O10P/c7-2(1-16-17(13,14)15)3(8)4(9)5(10)6(11)12/h2-4,7-9H,1H2,(H,11,12)(H2,13,14,15)",274.119301,-7.1674788221700005,-2.4354189619749995,4.732059860195001,3.6543483862769572
000000443,O=C1CCC2(C(C1)CCC1C2CCC2(C1CCC2=O)C)C,C19H28O2,"InChI=1S/C19H28O2/c1-18-9-7-13(20)11-12(18)3-4-14-15-5-6-17(21)19(15,2)10-8-16(14)18/h12,14-16H,3-11H2,1-2H3",288.42442,-6.370185240205,-0.48708379239499955,5.8831014478100006,1.6979526094647046
000000444,Clc1cccc(c1)C(=O)C(NC(C)(C)C)C,C13H18ClNO,"InChI=1S/C13H18ClNO/c1-9(15-13(2,3)4)12(16)10-6-5-7-11(14)8-10/h5-9,15H,1-4H3",239.74112,-5.74160224555,-1.52927983981,4.21232240574,2.8614783603710863
000000445,CC(C(c1cccc(c1)Cl)O)NC(C)(C)C,C13H20ClNO,"InChI=1S/C13H20ClNO/c1-9(15-13(2,3)4)12(16)10-6-5-7-11(14)8-10/h5-9,12,15-16H,1-4H3",241.757,-5.597381904785,-0.6068138866149999,4.99056801817,1.8435348974510897
000000446,OCC(NC(C(=O)c1cccc(c1)Cl)C)(C)C,C13H18ClNO2,"InChI=1S/C13H18ClNO2/c1-9(15-13(2,3)8-16)12(17)10-5-4-6-11(14)7-10/h4-7,9,15-16H,8H2,1-3H3",255.74052,-6.190590098875,-1.341521282965,4.84906881591,2.231149756965901
000000447,Clc1cccc(c1)C(=O)O,C7H5ClO2,"InChI=1S/C7H5ClO2/c8-6-3-1-2-5(4-6)7(9)10/h1-4H,(H,9,10)",156.5664,-7.142988575625,-1.3905017760550002,5.75248679957,3.816306982306717
000000448,OC(=O)CNC(=O)c1cccc(c1)Cl,C9H8ClNO3,"InChI=1S/C9H8ClNO3/c10-7-3-1-2-6(4-7)9(14)11-5-8(12)13/h1-4H,5H2,(H,11,14)(H,12,13)",213.61772,-7.006931650375,-1.4558091001750002,5.5511225502,6.071733941799492
000000449,OCCC(CC(=O)O)(O)C,C6H12O4,"InChI=1S/C6H12O4/c1-6(10,2-3-7)4-5(8)9/h7,10H,2-4H2,1H3,(H,8,9)",148.15708,-6.73753893838,-0.1932008338550002,6.544338104525,3.0727482351567628
000000450,Oc1ccc2c(c1)CCC1C2CCC2(C1CCC2O)C,C18H24O2,"InChI=1S/C18H24O2/c1-18-9-8-14-13-5-3-12(19)10-11(13)2-4-15(14)16(18)6-7-17(18)20/h3,5,10,14-17,19-20H,2,4,6-9H2,1H3",272.38196,-5.630035566845,0.07347073963499984,5.70350630648,1.0575141677604134
000000452,OC1C(O)C(O)C(C(=O)C1O)O,C6H10O6,"InChI=1S/C6H10O6/c7-1-2(8)4(10)6(12)5(11)3(1)9/h1-5,7-11H",178.14,-6.876317002135,-1.3605692525000004,5.515747749635,1.3172225511343936
000000453,OCC(C(C(C(CO)O)O)O)O,C6H14O6,"InChI=1S/C6H14O6/c7-1-3(9)5(11)6(12)4(10)2-8/h3-12H,1-2H2",182.17176,-6.51984785798,1.0449171859200002,7.5647650439000005,0.9984034841655952
000000454,CCCCCCCC=O,C8H16O,"InChI=1S/C8H16O/c1-2-3-4-5-6-7-8-9/h8H,2-7H2,1H3",128.21204,-6.854547894095001,-0.5306220084749995,6.323925885620001,2.4424835040192185
000000455,O=C1NC(=NC2C1N=C(CN2)C(=O)C(O)C)N,C9H13N5O3,"InChI=1S/C9H13N5O3/c1-3(15)6(16)4-2-11-7-5(12-4)8(17)14-9(10)13-7/h3,5,7,11,15H,2H2,1H3,(H3,10,13,14,17)",239.23122,-6.190590098875,-1.26260826632,4.927981832555,4.742940687560935
000000456,NC(=O)NC(=O)C(=O)O,C3H4N2O4,"InChI=1S/C3H4N2O4/c4-3(9)5-1(6)2(7)8/h(H,7,8)(H3,4,5,6,9)",132.07486,-7.728033354199999,-2.2830352056950005,5.4449981485049985,3.597863342567919
000000459,SC1=C(S)C2C(OC1COP(=O)(O)O)Nc1c(N2)c(=O)nc([nH]1)N,C10H14N5O6PS2,"InChI=1S/C10H14N5O6PS2/c11-10-14-7-4(8(16)15-10)12-3-6(24)5(23)2(21-9(3)13-7)1-20-22(17,18)19/h2-3,9,12,23-24H,1H2,(H2,17,18,19)(H4,11,13,14,15,16)",395.351821,-5.12662494342,-1.1020610945250002,4.024563848895,5.177800904801961
000000460,COc1ccccc1O,C7H8O2,"InChI=1S/C7H8O2/c1-9-7-5-3-2-4-6(7)8/h2-5,8H,1H3",124.13722,-5.39873879392,0.19592197235999986,5.59466076628,2.2107894055639945
000000461,CCCCCCCCCCCCCCCC(=O)OC(C[N+](C)(C)C)CC(=O)[O-],C23H45NO4,"InChI=1S/C23H45NO4/c1-5-6-7-8-9-10-11-12-13-14-15-16-17-18-23(27)28-21(19-22(25)26)20-24(2,3)4/h21H,5-20H2,1-4H3",399.6077,-4.5715126884,-0.165989448805,4.405523239595,11.739681153116084
000000463,O=C(NC(C(=O)O)CCCN=C(N)N)CCC(=O)O,C10H18N4O5,"InChI=1S/C10H18N4O5/c11-10(12)13-5-1-2-6(9(18)19)14-7(15)3-4-8(16)17/h6H,1-5H2,(H,14,15)(H,16,17)(H,18,19)(H4,11,12,13)",274.27372,-5.74704452256,-0.7619187814000004,4.98512574116,6.0171934107177405
000000464,O=C(c1ccccc1)NCC(=O)O,C9H9NO3,"InChI=1S/C9H9NO3/c11-8(12)6-10-9(13)7-4-2-1-3-5-7/h1-5H,6H2,(H,10,13)(H,11,12)",179.17266,-6.8872015561549995,-1.15376272612,5.733438830034999,6.264965736275738
000000465,CSCC1OC(C(C1O)O)OP(=O)(O)O,C6H13O7PS,"InChI=1S/C6H13O7PS/c1-15-2-3-4(7)5(8)6(12-3)13-14(9,10)11/h3-8H,2H2,1H3,(H2,9,10,11)",260.201981,-6.128003913260001,0.3510268671450003,6.479030780405001,2.567153376327562
000000466,OCC1OC(OP(=O)(O)O)C(C(C1O)O)O,C6H13O9P,"InChI=1S/C6H13O9P/c7-1-2-3(8)4(9)5(10)6(14-2)15-16(11,12)13/h2-10H,1H2,(H2,11,12,13)",260.135781,-6.917134079709999,0.4000073602349996,7.317141439944999,1.8101341888128073
000000469,OC(=O)CCCC(C(=O)O)N,C6H11NO4,"InChI=1S/C6H11NO4/c7-4(6(10)11)2-1-3-5(8)9/h4H,1-3,7H2,(H,8,9)(H,10,11)",161.15584,-7.03142189692,-0.17415286431999988,6.8572690326000005,1.6838279899737385
000000470,NC(C(=O)O)CCN,C4H10N2O2,"InChI=1S/C4H10N2O2/c5-2-1-3(6)4(7)8/h3H,1-2,5-6H2,(H,7,8)",118.1344,-6.29127222356,0.8653220445900001,7.15659426815,6.031080116784637
000000471,Oc1cc2OC(c3ccc(c(c3)O)O)C(C(=O)c2c(c1)O)O,C15H12O7,"InChI=1S/C15H12O7/c16-7-4-10(19)12-11(5-7)22-15(14(21)13(12)20)6-1-2-8(17)9(18)3-6/h1-5,14-19,21H",304.25158,-5.548401411695,-1.5782603329000002,3.970141078795,3.3185650549672827
000000472,OC(=O)C(=O)CC(=O)c1ccccc1N,C10H9NO4,"InChI=1S/C10H9NO4/c11-7-4-2-1-3-6(7)8(12)5-9(13)10(14)15/h1-4H,5,11H2,(H,14,15)",207.18276,-5.70894858349,-2.5415433636699998,3.16740521982,2.68792933443757
000000473,CSCCC(=O)C(=O)O,C5H8O3S,"InChI=1S/C5H8O3S/c1-9-3-2-4(6)5(7)8/h2-3H2,1H3,(H,7,8)",148.18022,-6.25317628449,-2.42725554646,3.82592073803,3.7084096711559527
000000474,CN(OP(=O)(OCC1OC(C(C1O)O)n1cnc2c1ncnc2N)O)C,C12H19N6O7P,"InChI=1S/C12H19N6O7P/c1-17(2)25-26(21,22)23-3-6-8(19)9(20)12(24-6)18-5-16-7-10(13)14-4-15-11(7)18/h4-6,8-9,12,19-20H,3H2,1-2H3,(H,21,22)(H2,13,14,15)",390.289021,-6.288551085055,-1.0993399560199997,5.189211129035001,4.567710432866886
000000475,OC1C(OC(C(C1O)O)C)OP(=O)(O)O,C6H13O8P,"InChI=1S/C6H13O8P/c1-2-3(7)4(8)5(9)6(13-2)14-15(10,11)12/h2-9H,1H3,(H2,10,11,12)",244.136381,-7.21645931526,0.6068138866149999,7.823273201875,2.3510675337601428
000000476,OC(=O)CC(CCOP(=O)(O)O)(O)C,C6H13O7P,"InChI=1S/C6H13O7P/c1-6(9,4-5(7)8)2-3-13-14(10,11)12/h9H,2-4H2,1H3,(H,7,8)(H2,10,11,12)",228.136981,-7.262718669845001,-0.4054496372449998,6.857269032600001,4.026947008242721
000000477,OC1C(OP(=O)(O)O)C(OP(=O)(O)O)C(C(C1OP(=O)(O)O)OP(=O)(O)O)O,C6H16O18P4,"InChI=1S/C6H16O18P4/c7-1-3(21-25(9,10)11)5(23-27(15,16)17)2(8)6(24-28(18,19)20)4(1)22-26(12,13)14/h1-8H,(H2,9,10,11)(H2,12,13,14)(H2,15,16,17)(H2,18,19,20)",500.075484,-7.59741870596,-0.1387780637549998,7.458640642205,0.8163297065830692
000000478,OC1C(OP(=O)(O)O)C(OP(=O)(O)O)C(C(C1OP(=O)(O)O)O)OP(=O)(O)O,C6H16O18P4,"InChI=1S/C6H16O18P4/c7-1-3(21-25(9,10)11)2(8)5(23-27(15,16)17)6(24-28(18,19)20)4(1)22-26(12,13)14/h1-8H,(H2,9,10,11)(H2,12,13,14)(H2,15,16,17)(H2,18,19,20)",500.075484,-7.279045500875,-0.5659968090399996,6.7130486918350005,3.7965943738126673
000000479,SCCNC(=O)CCNC(=O)C(C(CO)(C)C)O,C11H22N2O4S,"InChI=1S/C11H22N2O4S/c1-11(2,7-14)9(16)10(17)13-4-3-8(15)12-5-6-18/h9,14,16,18H,3-7H2,1-2H3,(H,12,15)(H,13,17)",278.36838,-6.457261672365,0.0897975706649996,6.54705924303,4.331178309743204
000000481,OCC(C(C(C(=O)COP(=O)(O)O)O)O)O,C6H13O9P,"InChI=1S/C6H13O9P/c7-1-3(8)5(10)6(11)4(9)2-15-16(12,13)14/h3,5-8,10-11H,1-2H2,(H2,12,13,14)",260.135781,-6.762029184925,-1.7496920587150004,5.012337126209999,1.977655789712659
000000483,OCC1(OC(C(C1O)O)COP(=O)(O)O)OP(=O)(O)O,C6H14O12P2,"InChI=1S/C6H14O12P2/c7-2-6(18-20(13,14)15)5(9)4(8)3(17-6)1-16-19(10,11)12/h3-5,7-9H,1-2H2,(H2,10,11,12)(H2,13,14,15)",340.115682,-7.1321040216050005,0.24218132694500039,7.374285348550001,1.8423407456051664
000000484,Nc1cnc[nH]1,C3H5N3,"InChI=1S/C3H5N3/c4-3-1-5-2-6-3/h1-2H,4H2,(H,5,6)",83.0919,-5.84500550874,0.7074960113,6.55250152004,3.034689853505791
000000485,[O-]S(=O)(=O)OCC[N+](C)(C)C,C5H13NO4S,"InChI=1S/C5H13NO4S/c1-6(2,3)4-5-10-11(7,8)9/h4-5H2,1-3H3",183.22602,-6.098071389705,0.4952472079100003,6.593318597615,14.168952332516227
000000487,CC(C(=O)O)C(=O)O,C4H6O4,"InChI=1S/C4H6O4/c1-2(3(5)6)4(7)8/h2H,1H3,(H,5,6)(H,7,8)",118.08804,-7.513063412305001,-0.8136204129950002,6.69944299931,4.754871786261539
000000488,O=CSCC(C(=O)NCC(=O)O)NC(=O)CCC(C(=O)O)N,C11H17N3O7S,"InChI=1S/C11H17N3O7S/c12-6(11(20)21)1-2-8(16)14-7(4-22-5-15)10(19)13-3-9(17)18/h5-7H,1-4,12H2,(H,13,19)(H,14,16)(H,17,18)(H,20,21)",335.33358,-6.5470592430300005,-1.4177131611050005,5.129346081925,5.286123462027348
000000489,OCC1OC(O)C(C(C1O)O)NS(=O)(=O)O,C6H13NO8S,"InChI=1S/C6H13NO8S/c8-1-2-4(9)5(10)3(6(11)15-2)7-16(12,13)14/h2-11H,1H2,(H,12,13,14)",259.23432,-6.947066603265001,0.5469488395050002,7.494015442770001,4.7787057298807385
000000490,O=CCP(=O)(O)O,C2H5O4P,"InChI=1S/C2H5O4P/c3-1-2-7(4,5)6/h1H,2H2,(H2,4,5,6)",124.032461,-7.317141439944999,-1.15376272612,6.163378713824999,2.9864016338565382
000000492,OS(=O)(=O)SS(=O)(=O)O,H2O6S3,"InChI=1S/H2O6S3/c1-8(2,3)7-9(4,5)6/h(H,1,2,3)(H,4,5,6)",194.20728,-8.122598437425,-2.41092871543,5.7116697219949994,3.113831977610545
000000494,CSCC1OC(C(C1O)O)O,C6H12O4S,"InChI=1S/C6H12O4S/c1-11-2-3-4(7)5(8)6(9)10-3/h3-9H,2H2,1H3",180.22208,-6.03004292708,0.47892037687999967,6.50896330396,1.6980538350714915
000000495,NC(C(=O)O)CCSCC1OC(C(C1O)O)O,C9H17NO6S,"InChI=1S/C9H17NO6S/c10-4(8(13)14)1-2-17-3-5-6(11)7(12)9(15)16-5/h4-7,9,11-12,15H,1-3,10H2,(H,13,14)",267.29938,-6.34025271665,-0.6585155182099998,5.6817371984400005,4.635679390837442
000000496,NCCCCNCCCNC(=O)C,C9H21N3O,"InChI=1S/C9H21N3O/c1-9(13)12-8-4-7-11-6-3-2-5-10/h11H,2-8,10H2,1H3,(H,12,13)",187.28254,-5.9701778799700005,0.8489952135600003,6.819173093530001,2.2618900441111194
000000497,NC(=O)CCCCC1SCC2C1NC(=O)N2,C10H17N3O2S,"InChI=1S/C10H17N3O2S/c11-8(14)4-2-1-3-7-9-6(5-16-7)12-10(15)13-9/h6-7,9H,1-5H2,(H2,11,14)(H2,12,13,15)",243.32588,-6.168820990835,0.5932081940899998,6.762029184925,3.92863979113344
000000499,O=C1CCC(N1)C(=O)O,C5H7NO3,"InChI=1S/C5H7NO3/c7-4-2-1-3(6-4)5(8)9/h3H,1-2H2,(H,6,7)(H,8,9)",129.11398,-7.0885658055250005,-0.12245123272500003,6.9661145728000005,2.4125136170482024
000000500,OC(=O)CCCN=C(N)N,C5H11N3O2,"InChI=1S/C5H11N3O2/c6-5(7)8-3-1-2-4(9)10/h1-3H2,(H,9,10)(H4,6,7,8)",145.15974,-6.299435639075001,0.4081707757500004,6.707606414825001,6.73919093987075
000000501,OC(=O)C(CCCN=C(N(C)C)N)N,C8H18N4O2,"InChI=1S/C8H18N4O2/c1-12(2)8(10)11-5-3-4-6(9)7(13)14/h6H,3-5,9H2,1-2H3,(H2,10,11)(H,13,14)",202.25412,-5.956572187445,0.29388295854000024,6.250455145985001,4.4008453127967355
000000502,NCCCCNC(=O)N,C5H13N3O,"InChI=1S/C5H13N3O/c6-3-1-2-4-8-5(7)9/h1-4,6H2,(H3,7,8,9)",131.17622,-6.171542129340001,1.515674147285,7.6872162766250005,4.489176401471098
000000503,NCC(=O)NC(=O)N,C3H7N3O2,"InChI=1S/C3H7N3O2/c4-1-2(7)6-3(5)8/h1,4H2,(H3,5,6,7,8)",117.10658,-6.359300686185,-0.16326831030000033,6.196032375884999,4.542784399665694