mol_id,SMILES,formula,inchi,mass,HOMO(eV),LUMO(eV),GAP(eV),dipole_moment
000004764,Oc1ccc(cc1)C1(OC(=O)c2c1cccc2)c1ccc(cc1)O,C20H14O4,"InChI=1S/C20H14O4/c21-15-9-5-13(6-10-15)20(14-7-11-16(22)12-8-14)18-4-2-1-3-17(18)19(23)24-20/h1-12,21-22H",318.32276,-5.85044778575,-1.3741749450249996,4.4762728407250005,4.481429929769516
000004765,Oc1ccc(cc1)S(=O)(=O)O,C6H6O4S,"InChI=1S/C6H6O4S/c7-5-1-3-6(4-2-5)11(8,9)10/h1-4,7H,(H,8,9,10)",174.17444,-6.949787741770001,-1.2952619283800004,5.65452581339,4.876821779221176
000004766,Oc1ccc(cc1)C1(OS(=O)(=O)c2c1cccc2)c1ccc(cc1)O,C19H14O5S,"InChI=1S/C19H14O5S/c20-15-9-5-13(6-10-15)19(14-7-11-16(21)12-8-14)17-3-1-2-4-18(17)25(22,23)24-19/h1-12,20-21H",354.37646,-5.940245356415,-1.28437737436,4.655867982055,5.683514514424504
000004767,CC(=CC1C(C1(C)C)C(=O)OCc1cccc(c1)Oc1ccccc1)C,C23H26O3,"InChI=1S/C23H26O3/c1-16(2)13-20-21(23(20,3)4)22(24)25-15-17-9-8-12-19(14-17)26-18-10-6-5-7-11-18/h5-14,20-21H,15H2,1-4H3",350.45074,-5.7388811070450005,-0.3401423131249999,5.398738793920001,1.9642406242637382
000004768,ClCCN(C(COc1ccccc1)C)Cc1ccccc1,C18H22ClNO,"InChI=1S/C18H22ClNO/c1-16(15-21-18-10-6-3-7-11-18)20(13-12-19)14-17-8-4-2-5-9-17/h2-11,16H,12-15H2,1H3",303.82638,-5.809630708175,-0.2068065263800003,5.6028241817949995,1.6446491328575221
000004770,NC(=O)OCCCc1ccccc1,C10H13NO2,"InChI=1S/C10H13NO2/c11-10(12)13-8-4-7-9-5-2-1-3-6-9/h1-3,5-6H,4,7-8H2,(H2,11,12)",179.21572,-6.38379093273,0.09796098618000038,6.481751918910001,2.2442757615012465
000004771,CC(Cc1ccccc1)(N)C,C10H15N,"InChI=1S/C10H15N/c1-10(2,11)8-9-6-4-3-5-7-9/h3-7H,8,11H2,1-2H3",149.2328,-6.03548520409,0.08163415514999972,6.11711935924,1.1848333774151538
000004773,CC1=CC=C(CC1)N(c1cccc(c1)O)CC1=NCCN1,C17H21N3O,"InChI=1S/C17H21N3O/c1-13-5-7-14(8-6-13)20(12-17-18-9-10-19-17)15-3-2-4-16(21)11-15/h2-5,7,11,21H,6,8-10,12H2,1H3,(H,18,19)",283.36814,-4.927981832555,-0.68572690326,4.242254929295,3.001248880780966
000004774,Cc1ccc(cc1)N(c1ccc(cc1)O)Cc1[nH]ccn1,C17H17N3O,"InChI=1S/C17H17N3O/c1-13-2-4-14(5-3-13)20(12-17-18-10-11-19-17)15-6-8-16(21)9-7-15/h2-11,21H,12H2,1H3,(H,18,19)",279.33638,-5.0830867273399996,-0.31293092807499967,4.770155799265,4.574623084494066
000004775,OC(=O)CCCc1ccccc1,C10H12O2,"InChI=1S/C10H12O2/c11-10(12)8-4-7-9-5-2-1-3-6-9/h1-3,5-6H,4,7-8H2,(H,11,12)",164.20108,-6.680395029775,-0.2204122189050004,6.45998281087,4.207796175268118
000004776,CCCCC(P(=O)(Oc1ccccc1)O)NC(=O)CCC(=O)O,C15H22NO6P,"InChI=1S/C15H22NO6P/c1-2-3-9-14(16-13(17)10-11-15(18)19)23(20,21)22-12-7-5-4-6-8-12/h4-8,14H,2-3,9-11H2,1H3,(H,16,17)(H,18,19)(H,20,21)",343.312041,-6.19331123738,-0.5932081940899998,5.60010304329,3.502069238768417
000004777,NC(Cc1ccccc1)COP(=O)(OCC1OC(C(C1O)O)n1cnc2c1ncnc2N)O,C19H25N6O7P,"InChI=1S/C19H25N6O7P/c20-12(6-11-4-2-1-3-5-11)7-30-33(28,29)31-8-13-15(26)16(27)19(32-13)25-10-24-14-17(21)22-9-23-18(14)25/h1-5,9-10,12-13,15-16,19,26-27H,6-8,20H2,(H,28,29)(H2,21,22,23)",480.411561,-5.9320819409,-1.0884554020000001,4.8436265389,2.5258326910349784
000004779,OC(=O)C(Cc1cccc(c1)c1ccccc1CP(=O)(O)O)N,C16H18NO5P,"InChI=1S/C16H18NO5P/c17-15(16(18)19)9-11-4-3-6-12(8-11)14-7-2-1-5-13(14)10-23(20,21)22/h1-8,15H,9-10,17H2,(H,18,19)(H2,20,21,22)",335.291581,-6.348416132165,-0.6394675486750003,5.70894858349,3.640865919833632
000004780,NC(=Nc1ccccc1)N=C(N)N,C8H11N5,"InChI=1S/C8H11N5/c9-7(10)13-8(11)12-6-4-2-1-3-5-6/h1-5H,(H6,9,10,11,12,13)",177.20644,-5.243633899135,-0.23946018843999983,5.004173710695,2.863706679808706
000004781,CCCCC1C(=O)N(N(C1=O)c1ccccc1)c1ccccc1,C19H20N2O2,"InChI=1S/C19H20N2O2/c1-2-3-14-17-18(22)20(15-10-6-4-7-11-15)21(19(17)23)16-12-8-5-9-13-16/h4-13,17H,2-3,14H2,1H3",308.3743,-5.77969818462,-0.8598797675799998,4.91981841704,1.1062759184077904
000004782,CNCC(c1cccc(c1)O)O,C9H13NO2,"InChI=1S/C9H13NO2/c1-10-6-9(12)7-3-2-4-8(11)5-7/h2-5,9-12H,6H2,1H3",167.20502,-6.03004292708,-0.16054717179499978,5.8694957552850004,1.8107055952045323
000004784,FS(=O)(=O)Cc1ccccc1,C7H7FO2S,"InChI=1S/C7H7FO2S/c8-11(9,10)6-7-4-2-1-3-5-7/h1-5H,6H2",174.1926832,-7.142988575625,-0.6966114572800004,6.446377118345,4.521558405976528
000004786,OC(c1ccccc1)C(N)C,C9H13NO,"InChI=1S/C9H13NO/c1-7(10)9(11)8-5-3-2-4-6-8/h2-7,9,11H,10H2,1H3",151.20562,-5.94296649492,-0.3047675125599998,5.6381989823600005,1.819577083552659
000004788,Oc1ccc(cc1)CCC(=O)c1c(O)cc(cc1O)O,C15H14O5,"InChI=1S/C15H14O5/c16-10-4-1-9(2-5-10)3-6-12(18)15-13(19)7-11(17)8-14(15)20/h1-2,4-5,7-8,16-17,19-20H,3,6H2",274.26866,-5.651804674885,-1.1292724795750004,4.522532195309999,3.5910009846425828
000004789,OCC1OC(Oc2cc(O)cc(c2C(=O)CCc2ccc(cc2)O)O)C(C(C1O)O)O,C21H24O10,"InChI=1S/C21H24O10/c22-9-16-18(27)19(28)20(29)21(31-16)30-15-8-12(24)7-14(26)17(15)13(25)6-3-10-1-4-11(23)5-2-10/h1-2,4-5,7-8,16,18-24,26-29H,3,6,9H2",436.40926,-5.8259575392050005,-1.4367611306399999,4.389196408565001,4.996070122072448
000004790,CCSCSP(=S)(OCC)OCC,C7H17O2PS3,"InChI=1S/C7H17O2PS3/c1-4-8-10(11,9-5-2)13-7-12-6-3/h4-7H2,1-3H3",260.377441,-6.26950311552,-0.18231627983499976,6.087186835685,1.7354941854587125
000004793,CCOP(=S)(SCn1c(=O)oc2c1ccc(c2)Cl)OCC,C12H15ClNO4PS2,"InChI=1S/C12H15ClNO4PS2/c1-3-16-19(20,17-4-2)21-8-14-10-6-5-9(13)7-11(10)18-12(14)15/h5-7H,3-4,8H2,1-2H3",367.808561,-6.299435639075001,-0.8680431830949997,5.431392455980001,4.224730826888146
000004794,OC(=O)C(CCP(=O)(O)C)N,C5H12NO4P,"InChI=1S/C5H12NO4P/c1-11(9,10)3-2-4(6)5(7)8/h4H,2-3,6H2,1H3,(H,7,8)(H,9,10)",181.126841,-6.8082885395099995,-0.14694147926999968,6.66134706024,2.1786547218595698
000004797,ONC(=O)COP(=O)(O)O,C2H6NO6P,"InChI=1S/C2H6NO6P/c4-2(3-5)1-9-10(6,7)8/h5H,1H2,(H,3,4)(H2,6,7,8)",171.045901,-6.408281179275,-0.497968346415,5.91031283286,2.879713958630961
000004798,OC1C(COP(=O)(CP(=O)(O)O)O)OC(C1O)n1cnc2c1ncnc2N,C11H17N5O9P2,"InChI=1S/C11H17N5O9P2/c12-9-6-10(14-2-13-9)16(3-15-6)11-8(18)7(17)5(25-11)1-24-27(22,23)4-26(19,20)21/h2-3,5,7-8,11,17-18H,1,4H2,(H,22,23)(H2,12,13,14)(H2,19,20,21)",425.228302,-6.103513666715,-0.9061391221650004,5.19737454455,4.511430487132989
000004805,OC(=O)CCC(C(=O)O)NC(=O)c1ccccc1C(=O)O,C13H13NO7,"InChI=1S/C13H13NO7/c15-10(16)6-5-9(13(20)21)14-11(17)7-3-1-2-4-8(7)12(18)19/h1-4,9H,5-6H2,(H,14,17)(H,15,16)(H,18,19)(H,20,21)",295.24482,-7.113056052070001,-1.385059499045,5.727996553025001,0.12471525592725213
000004806,O=C(c1ccccc1C(=O)O)Nc1ccc(cc1)S(=O)(=O)Nc1nccs1,C17H13N3O5S2,"InChI=1S/C17H13N3O5S2/c21-15(13-3-1-2-4-14(13)16(22)23)19-11-5-7-12(8-6-11)27(24,25)20-17-18-9-10-26-17/h1-10H,(H,18,20)(H,19,21)(H,22,23)",403.43222,-5.93752421791,-1.951056308085,3.986467909825,6.191742734406929
000004807,O=Cc1ccccc1C=O,C8H6O2,InChI=1S/C8H6O2/c9-5-7-3-1-2-4-8(7)6-10/h1-6H,134.13204,-6.587876320605,-2.4408612389850006,4.147015081619999,4.873041676838502
000004810,COc1nc(C)nc(c1NC1=NCCN1)Cl,C9H12ClN5O,"InChI=1S/C9H12ClN5O/c1-5-13-7(10)6(8(14-5)16-2)15-9-11-3-4-12-9/h3-4H2,1-2H3,(H2,11,12,15)",241.67748,-5.858611201265,-0.8898122911349997,4.96879891013,3.5926519299584254
000004811,CNC(=O)Oc1ccc2c(c1)C1(C)CCN(C1N2C)C,C15H21N3O2,"InChI=1S/C15H21N3O2/c1-15-7-8-17(3)13(15)18(4)12-6-5-10(9-11(12)15)20-14(19)16-2/h5-6,9,13H,7-8H2,1-4H3,(H,16,19)",275.34614,-4.8164151538499995,0.16871058730999966,4.985125741159999,2.756782631848402
000004812,CC(CCCC(CCCC(C)C)C)CCCC(=CCC1=C(C)C(=O)c2c(C1=O)cccc2)C,C31H46O2,"InChI=1S/C31H46O2/c1-22(2)12-9-13-23(3)14-10-15-24(4)16-11-17-25(5)20-21-27-26(6)30(32)28-18-7-8-19-29(28)31(27)33/h7-8,18-20,22-24H,9-17,21H2,1-6H3",450.69574,-6.149773021300001,-2.8082149371600003,3.3415580841400003,1.5193554972280185
000004813,Oc1cc(C=Cc2ccc(c(c2)O)O)cc(c1)O,C14H12O4,"InChI=1S/C14H12O4/c15-11-5-10(6-12(16)8-11)2-1-9-3-4-13(17)14(18)7-9/h1-8,15-18H",244.24268,-5.38241196289,-0.6585155182099998,4.72389644468,1.8207538563317667
000004814,COc1ccc(cc1C(=O)NCc1cccnc1)C(=O)NCc1cccnc1,C21H20N4O3,"InChI=1S/C21H20N4O3/c1-28-19-7-6-17(20(26)24-13-15-4-2-8-22-11-15)10-18(19)21(27)25-14-16-5-3-9-23-12-16/h2-12H,13-14H2,1H3,(H,24,26)(H,25,27)",376.4085,-6.49807874994,-1.297983066885,5.200095683055,3.997846605846828
000004815,O=C1OC2C(C1C1(O)CC3C4(C1(C2OC4=O)C)O3)C(O)(C)C,C15H18O7,"InChI=1S/C15H18O7/c1-12(2,18)6-7-10(16)20-8(6)9-13(3)14(7,19)4-5-15(13,22-5)11(17)21-9/h5-9,18-19H,4H2,1-3H3",310.29922,-7.289930054895001,-0.8544374905699996,6.435492564325001,4.33626742866385
000004816,CC(=C)C1C2OC(=O)C1C1(C3(C2OC(=O)C23C(C1)O2)C)O,C15H16O6,"InChI=1S/C15H16O6/c1-5(2)7-8-11(16)19-9(7)10-13(3)14(8,18)4-6-15(13,21-6)12(17)20-10/h6-10,18H,1,4H2,2-3H3",292.28394,-7.191969068714999,-0.6394675486750003,6.552501520039999,7.453560995254416
000004817,Cc1ccc(cc1)C(=O)Cn1c(=N)sc2c1CCCC2,C16H18N2OS,"InChI=1S/C16H18N2OS/c1-11-6-8-12(9-7-11)14(19)10-18-13-4-2-3-5-15(13)20-16(18)17/h6-9,17H,2-5,10H2,1H3",286.39192,-4.971520048635,-1.5673757788799998,3.404144269755,0.8891256519215942
000004819,CCC1C(=O)OCC1Cc1cncn1C,C11H16N2O2,"InChI=1S/C11H16N2O2/c1-3-10-8(6-15-11(10)14)4-9-5-12-7-13(9)2/h5,7-8,10H,3-4,6H2,1-2H3",208.25694,-5.978341295485,0.10068212468500004,6.07902342017,1.607633680474815
000004820,O=C(CC12CCCN2CCC1)Nc1c(C)cccc1C,C17H24N2O,"InChI=1S/C17H24N2O/c1-13-6-3-7-14(2)16(13)18-15(20)12-17-8-4-10-19(17)11-5-9-17/h3,6-7H,4-5,8-12H2,1-2H3,(H,18,20)",272.38526,-5.619151012825,-0.10068212468500004,5.51846888814,2.7883718489876848
000004822,CN1CCC(=C2c3ccccc3Sc3c2cccc3)CC1,C19H19NS,"InChI=1S/C19H19NS/c1-20-12-10-14(11-13-20)19-15-6-2-4-8-17(15)21-18-9-5-3-7-16(18)19/h2-9H,10-13H2,1H3",293.42586,-5.38241196289,-0.7483130888750003,4.634098874015,0.6952930261767336
000004823,COc1ccc(cc1)c1nc2c([nH]1)cc(cc2)C1=NNC(=O)CC1C,C19H18N4O2,"InChI=1S/C19H18N4O2/c1-11-9-17(24)22-23-18(11)13-5-8-15-16(10-13)21-19(20-15)12-3-6-14(25-2)7-4-12/h3-8,10-11H,9H2,1-2H3,(H,20,21)(H,22,24)",334.37182,-5.591939627775,-1.074849709475,4.5170899183,6.358722676659676
000004825,COc1c(OC)c2occc2c2c1ccc(=O)o2,C13H10O5,"InChI=1S/C13H10O5/c1-15-11-7-3-4-9(14)18-10(7)8-5-6-17-12(8)13(11)16-2/h3-6H,1-2H3",246.2155,-5.586497350765001,-1.651731072535,3.9347662782300006,5.583172119936479
000004826,CC(C(C)(C)C)N=C(Nc1ccncc1)NC#N,C13H19N5,"InChI=1S/C13H19N5/c1-10(13(2,3)4)17-12(16-9-14)18-11-5-7-15-8-6-11/h5-8,10H,1-4H3,(H2,15,16,17,18)",245.32346,-6.4218868718,-0.7972935819650004,5.6245932898349995,5.569695417444835
000004828,OC(COc1cccc2c1cc[nH]2)CNC(C)C,C14H20N2O2,"InChI=1S/C14H20N2O2/c1-10(2)16-8-11(17)9-18-14-5-3-4-13-12(14)6-7-15-13/h3-7,10-11,15-17H,8-9H2,1-2H3",248.3208,-5.031385095745001,0.13333578674499957,5.16472088249,1.6640988741351879
000004829,CCc1ccc(nc1)CCOc1ccc(cc1)CC1SC(=O)NC1=O,C19H20N2O3S,"InChI=1S/C19H20N2O3S/c1-2-13-3-6-15(20-12-13)9-10-24-16-7-4-14(5-8-16)11-17-18(22)21-19(23)25-17/h3-8,12,17H,2,9-11H2,1H3,(H,21,22,23)",356.4387,-5.711669721995,-0.9551196152549997,4.756550106740001,5.571472183280286
000004830,O=C(c1ccc(cc1)F)CCCN1CCC(CC1)(N1CCCCC1)C(=O)N,C21H30FN3O2,"InChI=1S/C21H30FN3O2/c22-18-8-6-17(7-9-18)19(26)5-4-12-24-15-10-21(11-16-24,20(23)27)25-13-2-1-3-14-25/h6-9H,1-5,10-16H2,(H2,23,27)",375.4802032,-5.200095683055,-1.439482269145,3.7606134139100003,3.732732014252697
000004831,CCn1cc(C(=O)O)c(=O)c2c1nc(nc2)N1CCNCC1,C14H17N5O3,"InChI=1S/C14H17N5O3/c1-2-18-8-10(13(21)22)11(20)9-7-16-14(17-12(9)18)19-5-3-15-4-6-19/h7-8,15H,2-6H2,1H3,(H,21,22)",303.31648,-6.310320193095,-1.961940862105,4.34837933099,9.753908497957935
000004836,OC(=O)C1N2C(=O)CC2S(=O)(=O)C1(C)Cn1ccnn1,C10H12N4O5S,"InChI=1S/C10H12N4O5S/c1-10(5-13-3-2-11-12-13)8(9(16)17)14-6(15)4-7(14)20(10,18)19/h2-3,7-8H,4-5H2,1H3,(H,16,17)",300.29108,-7.24367070031,-1.1238302025650002,6.119840497745,3.0900356445169046
000004837,N1CCNCC1,C4H10N2,"InChI=1S/C4H10N2/c1-2-6-4-3-5-1/h5-6H,1-4H2",86.1356,-5.7171119990050006,2.0653441252949998,7.7824561243,1.9081922310176196
000004838,OS(=O)(=O)C1CCNCC1,C5H11NO3S,"InChI=1S/C5H11NO3S/c7-10(8,9)5-1-3-6-4-2-5/h5-6H,1-4H2,(H,7,8,9)",165.21074,-6.06269658914,0.41089191425500005,6.473588503395,3.4878677171420933
000004839,CCN1CCCC(C1)OC(=O)C(c1ccccc1)c1ccccc1,C21H25NO2,"InChI=1S/C21H25NO2/c1-2-22-15-9-14-19(16-22)24-21(23)20(17-10-5-3-6-11-17)18-12-7-4-8-13-18/h3-8,10-13,19-20H,2,9,14-16H2,1H3",323.4287,-5.67085264442,-0.24762360395499972,5.423229040465,0.823417302205267
000004840,O=C(N1CCCCC1)C=CC=Cc1ccc2c(c1)OCO2,C17H19NO3,"InChI=1S/C17H19NO3/c19-17(18-10-4-1-5-11-18)7-3-2-6-14-8-9-15-16(12-14)21-13-20-15/h2-3,6-9,12H,1,4-5,10-11,13H2",285.33766,-5.45316156402,-1.5129530087799998,3.9402085552400004,3.7496521369781757
000004843,NC(=O)CN1CCCC1=O,C6H10N2O2,"InChI=1S/C6H10N2O2/c7-5(9)4-8-3-1-2-6(8)10/h1-4H2,(H2,7,9)",142.1558,-6.3021567775800005,0.2612292964799998,6.56338607406,3.266063502604014
000004845,OCc1nc(ccc1O)C(CNC(C)(C)C)O,C12H20N2O3,"InChI=1S/C12H20N2O3/c1-12(2,3)13-6-11(17)8-4-5-10(16)9(7-15)14-8/h4-5,11,13,15-17H,6-7H2,1-3H3",240.2988,-5.73615996854,-0.6802846262499997,5.05587534229,3.0002844614804443
000004846,OC(=O)c1cc(=O)c2c([nH]1)c(=O)cc1c2nc2ccccc2o1,C16H8N2O5,"InChI=1S/C16H8N2O5/c19-9-5-8(16(21)22)18-14-10(20)6-12-15(13(9)14)17-7-3-1-2-4-11(7)23-12/h1-6H,(H,18,19)(H,21,22)",308.24512,-6.3674641017,-3.17284749683,3.1946166048700007,5.367116948755728
000004847,Fc1ccc(cc1)C(=O)C1CCN(CC1)CCc1c(C)nc2n(c1=O)cccc2,C23H24FN3O2,"InChI=1S/C23H24FN3O2/c1-16-20(23(29)27-12-3-2-4-21(27)25-16)11-15-26-13-9-18(10-14-26)22(28)17-5-7-19(24)8-6-17/h2-8,12,18H,9-11,13-15H2,1H3",393.4539632,-5.56200710422,-1.5211164242950002,4.040890679925,2.0180909638551974
000004848,CN1CCN(CC1)CC(=O)n1c2ccccc2c(=O)[nH]c2c1nccc2,C19H21N5O2,"InChI=1S/C19H21N5O2/c1-22-9-11-23(12-10-22)13-17(25)24-16-7-3-2-5-14(16)19(26)21-15-6-4-8-20-18(15)24/h2-8H,9-13H2,1H3,(H,21,26)",351.40234,-5.36064285485,-1.39322291456,3.96741994029,5.051753500652026
000004849,OC(=O)c1cc(N2CCCC2)c(c(c1)S(=O)(=O)N)Oc1ccccc1,C17H18N2O5S,"InChI=1S/C17H18N2O5S/c18-25(22,23)15-11-12(17(20)21)10-14(19-8-4-5-9-19)16(15)24-13-6-2-1-3-7-13/h1-3,6-7,10-11H,4-5,8-9H2,(H,20,21)(H2,18,22,23)",362.40022,-6.021879511565,-1.4884627622349997,4.533416749330001,5.318367951051526
000004850,c1cnc(nc1)N1CCN(CC1)Cc1ccc2c(c1)OCO2,C16H18N4O2,"InChI=1S/C16H18N4O2/c1-4-17-16(18-5-1)20-8-6-19(7-9-20)11-13-2-3-14-15(10-13)22-12-21-14/h1-5,10H,6-9,11-12H2",298.33972,-5.31710463877,-0.8381106595399999,4.47899397923,0.2916955981395674
000004851,CCCCCC(C=CC1C(O)Cc2c1cc(n2c1ccccc1)CCCC(=O)[O-])O.[K+],C25H32KNO4,"InChI=1S/C25H33NO4.K/c1-2-3-5-12-20(27)14-15-21-22-16-19(11-8-13-25(29)30)26(23(22)17-24(21)28)18-9-6-4-7-10-18;/h4,6-7,9-10,14-16,20-21,24,27-28H,2-3,5,8,11-13,17H2,1H3,(H,29,30);/q;+1/p-1",449.62418,-5.020500541725,-1.0204269393750005,4.00007360235,7.555119577076262
000004852,CCCCCC(C=CC1C(O)Cc2c1cc(n2c1ccccc1)CCCC(=O)O)O,C25H33NO4,"InChI=1S/C25H33NO4/c1-2-3-5-12-20(27)14-15-21-22-16-19(11-8-13-25(29)30)26(23(22)17-24(21)28)18-9-6-4-7-10-18/h4,6-7,9-10,14-16,20-21,24,27-28H,2-3,5,8,11-13,17H2,1H3,(H,29,30)",411.53382,-5.559285965715,-0.8408317980450004,4.71845416767,5.134811425271721
000004853,CC1CCCC(N1CCCC(c1ccccn1)(c1ccccc1)O)C,C22H30N2O,"InChI=1S/C22H30N2O/c1-18-10-8-11-19(2)24(18)17-9-15-22(25,20-12-4-3-5-13-20)21-14-6-7-16-23-21/h3-7,12-14,16,18-19,25H,8-11,15,17H2,1-2H3",338.4864,-5.461324979535,-0.5877659170800005,4.873559062455,1.7036800574773423
000004854,CCN1CCC(=C2c3ccccc3CCc3c2cccc3)C1C,C22H25N,"InChI=1S/C22H25N/c1-3-23-15-14-19(16(23)2)22-20-10-6-4-8-17(20)12-13-18-9-5-7-11-21(18)22/h4-11,16H,3,12-15H2,1-2H3",303.4406,-5.586497350765001,-0.4435455763149996,5.142951774450001,1.1457927772952665
000004855,CCn1cc(C(=O)O)c(=O)c2c1nc(nc2)N1CCCC1,C14H16N4O3,"InChI=1S/C14H16N4O3/c1-2-17-8-10(13(20)21)11(19)9-7-15-14(16-12(9)17)18-5-3-4-6-18/h7-8H,2-6H2,1H3,(H,20,21)",288.30184,-6.310320193095,-1.8585375989149995,4.451782594180001,11.119895832268124
000004857,O=C(C1N2C(=O)C(C2SC1(C)C)N=CN1CCCCCC1)OCOC(=O)C(C)(C)C,C21H33N3O5S,"InChI=1S/C21H33N3O5S/c1-20(2,3)19(27)29-13-28-18(26)15-21(4,5)30-17-14(16(25)24(15)17)22-12-23-10-8-6-7-9-11-23/h12,14-15,17H,6-11,13H2,1-5H3",439.56882,-5.776977046114999,-0.5333431469800001,5.243633899134999,1.0041370683606894
000004858,CN(CC(=O)Nc1ccc2c(c1)c1ccccc1c(=O)[nH]2)C,C17H17N3O2,"InChI=1S/C17H17N3O2/c1-20(2)10-16(21)18-11-7-8-15-14(9-11)12-5-3-4-6-13(12)17(22)19-15/h3-9H,10H2,1-2H3,(H,18,21)(H,19,22)",295.33578,-5.36064285485,-1.1564838646249997,4.204158990225,6.324247163617025
000004860,OCC=C(CCC=C(CCC=C(CCC=C(C)C)C)CO)C,C20H34O2,"InChI=1S/C20H34O2/c1-17(2)8-5-9-18(3)10-6-12-20(16-22)13-7-11-19(4)14-15-21/h8,10,13-14,21-22H,5-7,9,11-12,15-16H2,1-4H3",306.48276,-6.098071389705,0.4000073602349996,6.4980787499399995,2.635659284863277
000004861,COC(C(=O)C(C(O)C)O)C1CC(=O)c2c(C1)cc1c(c2O)c(O)c(cc1)C,C21H24O7,"InChI=1S/C21H24O7/c1-9-4-5-11-6-12-7-13(21(28-3)20(27)18(25)10(2)22)8-14(23)15(12)19(26)16(11)17(9)24/h4-6,10,13,18,21-22,24-26H,7-8H2,1-3H3",388.41106,-5.314383500265,-1.2925407898749999,4.0218427103900005,5.203935922297084
000004865,COc1cc(cc(c1OC)OC)C1C2C(=O)OCC2C(c2c1cc1OCOc1c2)O,C22H22O8,"InChI=1S/C22H22O8/c1-25-16-4-10(5-17(26-2)21(16)27-3)18-11-6-14-15(30-9-29-14)7-12(11)20(23)13-8-28-22(24)19(13)18/h4-7,13,18-20,23H,8-9H2,1-3H3",414.40528,-5.54023799618,-0.5034106234250002,5.036827372755,6.729824131465695
000004867,OCCOCCOCCOCCOCCOCCOCCOCCOCCO,C18H38O10,"InChI=1S/C18H38O10/c19-1-3-21-5-7-23-9-11-25-13-15-27-17-18-28-16-14-26-12-10-24-8-6-22-4-2-20/h19-20H,1-18H2",414.48832,-6.696721860805001,1.6707790420700004,8.367500902875001,0.5513124625400736
000004870,CN1C(CSCC(F)(F)F)Nc2c(S1(=O)=O)cc(c(c2)Cl)S(=O)(=O)N,C11H13ClF3N3O4S3,"InChI=1S/C11H13ClF3N3O4S3/c1-18-10(4-23-5-11(13,14)15)17-7-2-6(12)8(24(16,19)20)3-9(7)25(18,21)22/h2-3,10,17H,4-5H2,1H3,(H2,16,19,20)",439.8818296,-6.468146226385,-1.5320009783149997,4.93614524807,8.206018412047282
000004871,CC(=CCc1c2OC(C)(C)C=Cc2c2c(c1O)c(=O)c(co2)c1ccc(c(c1)O)O)C,C25H24O6,"InChI=1S/C25H24O6/c1-13(2)5-7-15-21(28)20-22(29)17(14-6-8-18(26)19(27)11-14)12-30-24(20)16-9-10-25(3,4)31-23(15)16/h5-6,8-12,26-28H,7H2,1-4H3",420.45446,-5.080365588835,-1.0258692163849998,4.05449637245,5.8000572484372945
000004872,OC(=O)CCC1(O)CCC2C1(C)CCC1C2C=CC2=CC(=O)CCC12C,C22H30O4,"InChI=1S/C22H30O4/c1-20-9-5-15(23)13-14(20)3-4-16-17(20)6-10-21(2)18(16)7-11-22(21,26)12-8-19(24)25/h3-4,13,16-18,26H,5-12H2,1-2H3,(H,24,25)",358.4712,-6.307599054590001,-1.4367611306399999,4.870837923950001,5.831070656378724
000004873,[Cl-].[K+],ClK,InChI=1S/ClH.K/h1H;/q;+1/p-1,74.5513,-5.662689228905,-1.6626156265550005,4.00007360235,10.262089613248609
000004874,COc1cc(ccc1O)S(=O)(=O)O,C7H8O5S,"InChI=1S/C7H8O5S/c1-12-7-4-5(13(9,10)11)2-3-6(7)8/h2-4,8H,1H3,(H,9,10,11)",204.20042,-6.40556004077,-1.2027432192100003,5.20281682156,4.638675358240324
000004877,Nc1ncnc2c1c(nn2C(C)(C)C)c1cccc2c1cccc2,C19H19N5,"InChI=1S/C19H19N5/c1-19(2,3)24-18-15(17(20)21-11-22-18)16(23-24)14-10-6-8-12-7-4-5-9-13(12)14/h4-11H,1-3H3,(H2,20,21,22)",317.38766,-5.695342890965001,-1.3007042053899998,4.394638685575001,2.567450896113692
000004878,Clc1ccc(cc1)c1nn(c2c1c(N)ncn2)C(C)(C)C,C15H16ClN5,"InChI=1S/C15H16ClN5/c1-15(2,3)21-14-11(13(17)18-8-19-14)12(20-21)9-4-6-10(16)7-5-9/h4-8H,1-3H3,(H2,17,18,19)",301.77404,-5.891264863325,-1.1374358950900003,4.753828968235,0.6917896384834049
000004879,Nc1ncnc2c1cnn2c1ccccc1,C11H9N5,"InChI=1S/C11H9N5/c12-10-9-6-15-16(11(9)14-7-13-10)8-4-2-1-3-5-8/h1-7H,(H2,12,13,14)",211.22266,-5.880380309305,-1.161926141635,4.71845416767,2.9098811109254963
000004882,O=C(c1ccccc1)NC1=CC(=O)c2c(C1=O)cccc2,C17H11NO3,"InChI=1S/C17H11NO3/c19-15-10-14(16(20)13-9-5-4-8-12(13)15)18-17(21)11-6-2-1-3-7-11/h1-10H,(H,18,21)",277.27414,-6.71576983034,-2.9333873083900004,3.78238252195,4.2227772336433995
000004883,OC(COc1ccc(cc1)NC(=O)C)CNC(C)C,C14H22N2O3,"InChI=1S/C14H22N2O3/c1-10(2)15-8-13(18)9-19-14-6-4-12(5-7-14)16-11(3)17/h4-7,10,13,15,18H,8-9H2,1-3H3,(H,16,17)",266.33608,-5.3878542399,-0.08163415514999972,5.3062200847500005,3.907268730797384
000004885,CCCNC1CCc2c(C1)sc(n2)N,C10H17N3S,"InChI=1S/C10H17N3S/c1-2-5-12-7-3-4-8-9(6-7)14-10(11)13-8/h7,12H,2-6H2,1H3,(H2,11,13)",211.32708,-5.276287561195,0.059865047109999736,5.3361526083049995,1.3477617788889844