mol_id,SMILES,formula,inchi,mass,HOMO(eV),LUMO(eV),GAP(eV),dipole_moment
000004636,Cc1cc(c(c(c1CC1=NCCN1)C)O)C(C)(C)C,C16H24N2O,"InChI=1S/C16H24N2O/c1-10-8-13(16(3,4)5)15(19)11(2)12(10)9-14-17-6-7-18-14/h8,19H,6-7,9H2,1-5H3,(H,17,18)",260.37456,-5.532074580665,-0.03265366206000042,5.499420918605,3.382497489736984
000004638,OC=C1CC2(C)C(CC1=O)CCC1C2CCC2(C1CCC2(C)O)C,C21H32O3,"InChI=1S/C21H32O3/c1-19-11-13(12-22)18(23)10-14(19)4-5-15-16(19)6-8-20(2)17(15)7-9-21(20,3)24/h12,14-17,22,24H,4-11H2,1-3H3",332.47698,-6.239570591965,-1.1673684186450002,5.07220217332,2.3632797837896806
000004639,O=C1CCC2(C34C1Oc1c4c(CC2N(CC3)C)ccc1O)O,C17H19NO4,"InChI=1S/C17H19NO4/c1-18-7-6-16-13-9-2-3-10(19)14(13)22-15(16)11(20)4-5-17(16,21)12(18)8-9/h2-3,12,15,19,21H,4-8H2,1H3",301.33706,-5.69262175246,-0.5687179475450002,5.123903804915,3.114916701473893
000004640,COc1cc2c(cc1OC)[nH]c(c2CCN1CCN(CC1)c1ccccc1)C,C23H29N3O2,"InChI=1S/C23H29N3O2/c1-17-19(20-15-22(27-2)23(28-3)16-21(20)24-17)9-10-25-11-13-26(14-12-25)18-7-5-4-6-8-18/h4-8,15-16,24H,9-14H2,1-3H3",379.49526,-4.639541151025001,0.09523984767499982,4.734780998700001,0.8463166472532607
000004641,CCCCC1C(=O)N(N(C1=O)c1ccc(cc1)O)c1ccccc1,C19H20N2O3,"InChI=1S/C19H20N2O3/c1-2-3-9-17-18(23)20(14-7-5-4-6-8-14)21(19(17)24)15-10-12-16(22)13-11-15/h4-8,10-13,17,22H,2-3,9H2,1H3",324.3737,-5.51846888814,-0.8000147204700001,4.71845416767,1.526992325246594
000004642,CN1CCCN=C1COC(=O)C(c1ccccc1)(C1CCCCC1)O,C20H28N2O3,"InChI=1S/C20H28N2O3/c1-22-14-8-13-21-18(22)15-25-19(23)20(24,16-9-4-2-5-10-16)17-11-6-3-7-12-17/h2,4-5,9-10,17,24H,3,6-8,11-15H2,1H3",344.44792,-6.081744558675,0.027211385050000203,6.108955943725,4.578452865679083
000004644,O=c1[nH]c(=O)c2c(n1)[nH][nH]c2,C5H4N4O2,"InChI=1S/C5H4N4O2/c10-4-2-1-6-9-3(2)7-5(11)8-4/h1H,(H3,6,7,8,9,10,11)",152.11086,-6.5688283510700005,-2.1333725879199994,4.435455763150001,7.655825079034526
000004646,OC(=O)C=Cc1ccc(cc1)Cn1ccnc1,C13H12N2O2,"InChI=1S/C13H12N2O2/c16-13(17)6-5-11-1-3-12(4-2-11)9-15-8-7-14-10-15/h1-8,10H,9H2,(H,16,17)",228.24658,-6.163378713825001,-1.9510563080850005,4.21232240574,3.8273298203948927
000004647,OCC(C(c1ccc(cc1)N)O)NC(=O)C(Cl)Cl,C11H14Cl2N2O3,"InChI=1S/C11H14Cl2N2O3/c12-10(13)11(18)15-8(5-16)9(17)6-1-3-7(14)4-2-6/h1-4,8-10,16-17H,5,14H2,(H,15,18)",293.14646,-5.54023799618,-0.808178135985,4.732059860195,3.7527354308316223
000004648,ONC(=O)C(NC(=O)C(NC(=O)C1CCCN1C(=O)CNC(=O)c1ccc(cc1)N)CC(C)C)C,C23H34N6O6,"InChI=1S/C23H34N6O6/c1-13(2)11-17(22(33)26-14(3)20(31)28-35)27-23(34)18-5-4-10-29(18)19(30)12-25-21(32)15-6-8-16(24)9-7-15/h6-9,13-14,17-18,35H,4-5,10-12,24H2,1-3H3,(H,25,32)(H,26,33)(H,27,34)(H,28,31)",490.55266,-5.67629492143,-0.5061317619299999,5.1701631595,5.566551722511253
000004649,Nc1ccc(c(c1)O)C(=O)O,C7H7NO3,"InChI=1S/C7H7NO3/c8-4-1-2-5(7(10)11)6(9)3-4/h1-3,9H,8H2,(H,10,11)",153.13538,-5.853168924255001,-0.9687253077799998,4.884443616475001,6.4243760539628285
000004650,O=C1C=CC(=O)C=C1,C6H4O2,InChI=1S/C6H4O2/c7-5-1-2-6(8)4-3-5/h1-4H,108.09476,-7.303535747420001,-3.415028823775,3.8885069236450005,2.389560629069704e-05
000004651,CCCCNc1ccc(cc1)C(=O)OCCN(CC)CC,C17H28N2O2,"InChI=1S/C17H28N2O2/c1-4-7-12-18-16-10-8-15(9-11-16)17(20)21-14-13-19(5-2)6-3/h8-11,18H,4-7,12-14H2,1-3H3",292.41642,-5.34975830083,-0.5850447785749999,4.764713522255,4.829316629297152
000004652,NC(C(=O)O)Cc1ccc(cc1)Cl,C9H10ClNO2,"InChI=1S/C9H10ClNO2/c10-7-3-1-6(2-4-7)5-8(11)9(12)13/h1-4,8H,5,11H2,(H,12,13)",199.6342,-6.68855844529,-0.8680431830949997,5.820515262195,2.590607994289565
000004653,NCCc1ccc(cc1)F,C8H10FN,"InChI=1S/C8H10FN/c9-8-3-1-7(2-4-8)5-6-10/h1-4H,5-6,10H2",139.1701032,-6.23684945346,-0.21496994189500018,6.0218795115649995,1.89345996525831
000004654,NC(C(=O)O)Cc1ccc(cc1)F,C9H10FNO2,"InChI=1S/C9H10FNO2/c10-7-3-1-6(2-4-7)5-8(11)9(12)13/h1-4,8H,5,11H2,(H,12,13)",183.1796032,-6.62869339818,-0.7619187814000004,5.86677461678,2.7993695964070198
000004655,CNC(Cc1ccc(cc1)O)C,C10H15NO,"InChI=1S/C10H15NO/c1-8(11-2)7-9-3-5-10(12)6-4-9/h3-6,8,11-12H,7H2,1-2H3",165.2322,-5.602824181795,0.002721138504999665,5.6055453203,2.108423766770333
000004657,NCCc1ccc(cc1)OC,C9H13NO,"InChI=1S/C9H13NO/c1-11-9-4-2-8(3-5-9)6-7-10/h2-5H,6-7,10H2,1H3",151.20562,-5.613708735815001,0.0897975706649996,5.7035063064800005,2.46468915783005
000004660,[O-][N+](=O)c1ccc(cc1)NCCOP(=O)(OP(=O)(O)O)O,C8H12N2O9P2,"InChI=1S/C8H12N2O9P2/c11-10(12)8-3-1-7(2-4-8)9-5-6-18-21(16,17)19-20(13,14)15/h1-4,9H,5-6H2,(H,16,17)(H2,13,14,15)",342.136402,-6.016437234555,-1.8503741834000005,4.166063051155,9.228982362151582
000004661,OC(=O)Cc1ccc(cc1)[N+](=O)[O-],C8H7NO4,"InChI=1S/C8H7NO4/c10-8(11)5-6-1-3-7(4-2-6)9(12)13/h1-4H,5H2,(H,10,11)",181.14548,-7.594697567455,-2.685763704435,4.908933863020001,3.2808966587437647
000004665,Fc1ccc(cc1)c1c([nH]n(c1=O)c1ccc(cc1)Cl)c1ccncc1,C20H13ClFN3O,"InChI=1S/C20H13ClFN3O/c21-15-3-7-17(8-4-15)25-20(26)18(13-1-5-16(22)6-2-13)19(24-25)14-9-11-23-12-10-14/h1-12,24H",365.7881232,-5.921197386879999,-2.02452704772,3.8966703391599995,3.2079220020899823
000004667,CC(=CCC(C1=CC(=O)OC1O)O)CCC1(C)C(C)CCC2(C1CCCC2=C)C,C25H38O4,"InChI=1S/C25H38O4/c1-16(9-10-20(26)19-15-22(27)29-23(19)28)11-13-24(4)18(3)12-14-25(5)17(2)7-6-8-21(24)25/h9,15,18,20-21,23,26,28H,2,6-8,10-14H2,1,3-5H3",402.56682,-6.50352102695,-1.4993473162550002,5.0041737106949995,4.206544915777912
000004668,CCCCCCC=CCCCCCCCC(=O)O,C16H30O2,"InChI=1S/C16H30O2/c1-2-3-4-5-6-7-8-9-10-11-12-13-14-15-16(17)18/h7-8H,2-6,9-15H2,1H3,(H,17,18)",254.4082,-6.32392588562,0.23401791142999961,6.557943797049999,4.229825182088735
000004670,CCCCCCCCCCCCCCCC(=O)C(F)(F)F,C17H31F3O,"InChI=1S/C17H31F3O/c1-2-3-4-5-6-7-8-9-10-11-12-13-14-15-16(21)17(18,19)20/h2-15H2,1H3",308.4226496,-7.496736581275001,-1.5265587013050004,5.9701778799700005,3.183213162116072
000004671,CCCCCCCCCCCCCCCC(=O)NCCO,C18H37NO2,"InChI=1S/C18H37NO2/c1-2-3-4-5-6-7-8-9-10-11-12-13-14-15-18(21)19-16-17-20/h20H,2-17H2,1H3,(H,19,21)",299.49188,-6.606924290139999,0.6176984406350003,7.224622730775,3.152069424406131
000004674,NCCC(P(=O)(O)O)(P(=O)(O)O)O,C3H11NO7P2,"InChI=1S/C3H11NO7P2/c4-2-1-3(5,12(6,7)8)13(9,10)11/h5H,1-2,4H2,(H2,6,7,8)(H2,9,10,11)",235.069462,-6.50352102695,-0.03265366206000042,6.470867364889999,1.5113612797398908
000004676,CC(C1C(=O)N2C1CC(=C2C(=O)O)SC1CCN(C1)C(=N)C)O,C15H21N3O4S,"InChI=1S/C15H21N3O4S/c1-7(19)12-10-5-11(13(15(21)22)18(10)14(12)20)23-9-3-4-17(6-9)8(2)16/h7,9-10,12,16,19H,3-6H2,1-2H3,(H,21,22)",339.40994,-6.032764065585001,-1.717038396655,4.315725668930001,5.378076604721245
000004678,OCCCNC(=O)C(C(CO)(C)C)O,C9H19NO4,"InChI=1S/C9H19NO4/c1-9(2,6-12)7(13)8(14)10-4-3-5-11/h7,11-13H,3-6H2,1-2H3,(H,10,14)",205.25146,-6.69944299931,0.36191142116499986,7.061354420475,2.6708561618204003
000004679,COc1c(OC)ccnc1CS(=O)c1nc2c([nH]1)cc(cc2)OC(F)F,C16H15F2N3O4S,"InChI=1S/C16H15F2N3O4S/c1-23-13-5-6-19-12(14(13)24-2)8-26(22)16-20-10-4-3-9(25-15(17)18)7-11(10)21-16/h3-7,15H,8H2,1-2H3,(H,20,21)",383.3698064,-5.93752421791,-1.1428781721000005,4.7946460458099995,4.9075286183761575
000004680,COc1ccc(cc1OC)Cc1nccc2c1cc(OC)c(c2)OC,C20H21NO4,"InChI=1S/C20H21NO4/c1-22-17-6-5-13(10-18(17)23-2)9-16-15-12-20(25-4)19(24-3)11-14(15)7-8-21-16/h5-8,10-12H,9H2,1-4H3",339.38504,-5.123903804915,-0.9687253077799998,4.155178497135,4.851135624847547
000004683,OCC1OC(Sc2ccc(cc2)N(O)O)C(C(C1O)O)O,C12H17NO7S,"InChI=1S/C12H17NO7S/c14-5-8-9(15)10(16)11(17)12(20-8)21-7-3-1-6(2-4-7)13(18)19/h1-4,8-12,14-19H,5H2",319.33088,-5.722554276015,-0.5741602245550004,5.1483940514599995,2.913432920488474
000004684,Oc1ccc(cc1)Cl,C6H5ClO,"InChI=1S/C6H5ClO/c7-5-1-3-6(8)4-2-5/h1-4,8H",128.5563,-5.962014464455,-0.4054496372449998,5.55656482721,2.469364517852721
000004685,Clc1ccc(cc1)Cl,C6H4Cl2,InChI=1S/C6H4Cl2/c7-5-1-2-6(8)4-3-5/h1-4H,147.00196,-6.615087705655,-0.7401496733599995,5.874938032295001,5.196152422706632e-06
000004686,CC(=O)OCC(=O)C1(O)C(C)CC2C1(C)CC(O)C1C2CC(C2=CC(=O)C=CC12C)F,C24H31FO6,"InChI=1S/C24H31FO6/c1-12-7-16-15-9-18(25)17-8-14(27)5-6-22(17,3)21(15)19(28)10-23(16,4)24(12,30)20(29)11-31-13(2)26/h5-6,8,12,15-16,18-19,21,28,30H,7,9-11H2,1-4H3",434.4977432,-6.304877916085,-1.6979904271199997,4.606887488965,9.098343327040753
000004687,Cn1cnc2c1c(=O)n(c(=O)[nH]2)C,C7H8N4O2,"InChI=1S/C7H8N4O2/c1-10-3-8-5-4(10)6(12)11(2)7(13)9-5/h3H,1-2H3,(H,9,13)",180.16402,-6.070860004655,-1.0558017399399997,5.015058264715,3.8186323929586363
000004688,CN(Cc1ccccc1)CC#C,C11H13N,"InChI=1S/C11H13N/c1-3-9-12(2)10-11-7-5-4-6-8-11/h1,4-8H,9-10H2,2H3",159.22762,-6.108955943725,-0.046259354584999635,6.062696589140001,0.8067895004603121
000004690,Clc1ccc(cc1Cl)n1oc(=O)n(c1=O)C,C9H6Cl2N2O3,"InChI=1S/C9H6Cl2N2O3/c1-12-8(14)13(16-9(12)15)5-2-3-6(10)7(11)4-5/h2-4H,1H3",261.06154,-6.495357611435,-1.0367537704050003,5.4586038410299995,2.5830351520056785
000004691,Fc1ccc(cc1)C1CCNCC1COc1ccc2c(c1)OCO2,C19H20FNO3,"InChI=1S/C19H20FNO3/c20-15-3-1-13(2-4-15)17-7-8-21-10-14(17)11-22-16-5-6-18-19(9-16)24-12-23-18/h1-6,9,14,17,21H,7-8,10-12H2",329.3654032,-5.151115189965,-0.4435455763149996,4.7075696136500005,1.5682208817899348
000004692,CC1=CCCC2(C)OC2C2C(CC1)C(=C)C(=O)O2,C15H20O3,"InChI=1S/C15H20O3/c1-9-5-4-8-15(3)13(18-15)12-11(7-6-9)10(2)14(16)17-12/h5,11-13H,2,4,6-8H2,1,3H3",248.3175,-6.479030780405,-1.3088676209049996,5.1701631595,6.809739261577861
000004696,O=C1OC2=CCOC(C2=C1)O,C7H6O4,"InChI=1S/C7H6O4/c8-6-3-4-5(11-6)1-2-10-7(4)9/h1,3,7,9H,2H2",154.12014,-6.906249525690001,-2.32385228327,4.582397242420001,3.2259023297038922
000004697,O=C1C=C2C(OC1C(O)(C)C)CCC1(C2(O)CCC2C1(C)c1[nH]c3c(c1C2)cccc3)C,C27H33NO4,"InChI=1S/C27H33NO4/c1-24(2,30)23-20(29)14-18-21(32-23)10-11-25(3)26(4)15(9-12-27(18,25)31)13-17-16-7-5-6-8-19(16)28-22(17)26/h5-8,14-15,21,23,28,30-31H,9-13H2,1-4H3",435.55522,-5.11029811239,-1.6680579035649998,3.442240208825,2.9339329822436295
000004698,COC(=O)C1=C(C)NC(=C(C1C)C(=O)OCCSc1ccccc1)C,C19H23NO4S,"InChI=1S/C19H23NO4S/c1-12-16(18(21)23-4)13(2)20-14(3)17(12)19(22)24-10-11-25-15-8-6-5-7-9-15/h5-9,12,20H,10-11H2,1-4H3",361.45522,-5.57833393525,-1.3768960835300001,4.20143785172,2.2992872548231116
000004699,CCCCC(C(=O)NC(C(=O)Nc1ccc(cc1)[N+](=O)[O-])CC(C)C)OP(=O)(O)O,C18H28N3O8P,"InChI=1S/C18H28N3O8P/c1-4-5-6-16(29-30(26,27)28)18(23)20-15(11-12(2)3)17(22)19-13-7-9-14(10-8-13)21(24)25/h7-10,12,15-16H,4-6,11H2,1-3H3,(H,19,22)(H,20,23)(H2,26,27,28)",445.403981,-6.17698440635,-1.8340473523699998,4.34293705398,12.164112270682065
000004700,OC1C(OC2=CC(=O)CC2)c2cc(ccc2OC1(C)C)C#N,C17H17NO4,"InChI=1S/C17H17NO4/c1-17(2)16(20)15(21-12-5-4-11(19)8-12)13-7-10(9-18)3-6-14(13)22-17/h3,6-8,15-16,20H,4-5H2,1-2H3",299.32118,-6.36202182469,-1.2925407898749999,5.069481034815,6.764401603324347
000004702,SC(C(=O)O)Cc1ccccc1,C9H10O2S,"InChI=1S/C9H10O2S/c10-9(11)8(12)6-7-4-2-1-3-5-7/h1-5,8,12H,6H2,(H,10,11)",182.2395,-6.473588503395,-0.6884480417649996,5.78514046163,4.547816033763129
000004703,SC(=Cc1ccc(cc1)C)C(=O)O,C10H10O2S,"InChI=1S/C10H10O2S/c1-7-2-4-8(5-3-7)6-9(13)10(11)12/h2-6,13H,1H3,(H,11,12)",194.2502,-5.989225849505,-1.3034253438949994,4.6858005056100005,4.297335635007115
000004704,OC(=O)C(=Cc1c[nH]c2c1cc(F)cc2)S,C11H8FNO2S,"InChI=1S/C11H8FNO2S/c12-7-1-2-9-8(4-7)6(5-13-9)3-10(16)11(14)15/h1-5,13,16H,(H,14,15)",237.2501232,-5.722554276015,-1.3768960835300001,4.345658192485,5.288563396115339
000004710,NC(C(C(CC(C)C)O)O)CC1CCCCC1,C14H29NO2,"InChI=1S/C14H29NO2/c1-10(2)8-13(16)14(17)12(15)9-11-6-4-3-5-7-11/h10-14,16-17H,3-9,15H2,1-2H3",243.38556,-6.38923320974,1.57281805589,7.96205126563,2.2977295278359025
000004712,Fc1ccc(cc1)c1nc([nH]c1c1ccncc1)c1ccc(cc1)[N+](=O)[O-],C20H13FN4O2,"InChI=1S/C20H13FN4O2/c21-16-5-1-13(2-6-16)18-19(14-9-11-22-12-10-14)24-20(23-18)15-3-7-17(8-4-15)25(26)27/h1-12H,(H,23,24)",360.3412232,-5.866774616780001,-2.6068506877899997,3.259923928990001,3.3118290916412034
000004713,COc1cccc(c1N)c1cc(=O)c2c(o1)cccc2,C16H13NO3,"InChI=1S/C16H13NO3/c1-19-14-8-4-6-11(16(14)17)15-9-12(18)10-5-2-3-7-13(10)20-15/h2-9H,17H2,1H3",267.27932,-5.333431469800001,-1.47485706971,3.8585744000900006,5.6657000646379085
000004714,OCC#CC#CC(CCCCCCCCCC=CCCCCCCCCCCCC=CC(C#C)O)O,C33H52O3,"InChI=1S/C33H52O3/c1-2-32(35)28-24-21-19-17-15-13-11-9-7-5-3-4-6-8-10-12-14-16-18-20-22-25-29-33(36)30-26-23-27-31-34/h1,6,8,24,28,32-36H,3-5,7,9-22,25,29,31H2",496.76418,-6.285829946550001,-0.6666789337250005,5.619151012825,2.55588141490289
000004715,OCC#CC#CC(CCCCCCCCCC=CCCCCCCCCCCC=CC(C#C)O)O,C32H50O3,"InChI=1S/C32H50O3/c1-2-31(34)27-23-20-18-16-14-12-10-8-6-4-3-5-7-9-11-13-15-17-19-21-24-28-32(35)29-25-22-26-30-33/h1,5,7,23,27,31-35H,3-4,6,8-21,24,28,30H2",482.7376,-6.2803876695400005,-0.742870811865,5.5375168576750005,1.9333447166850508
000004718,OCC#CC#CC(CCCCCCCCCCC#CCCCCCCCCCCC=CC(C#C)O)O,C33H50O3,"InChI=1S/C33H50O3/c1-2-32(35)28-24-21-19-17-15-13-11-9-7-5-3-4-6-8-10-12-14-16-18-20-22-25-29-33(36)30-26-23-27-31-34/h1,24,28,32-36H,3,5,7-22,25,29,31H2",494.7483,-6.391954348245,-0.7020537342899997,5.689900613955,2.025346233305555
000004719,OCC#CC#CC(CCCCCCCCCCC(CCCCCCCCCC=CC(C#C)O)C)O,C32H52O3,"InChI=1S/C32H52O3/c1-3-31(34)26-20-15-11-6-4-5-9-13-18-24-30(2)25-19-14-10-7-8-12-16-21-27-32(35)28-22-17-23-29-33/h1,20,26,30-35H,4-16,18-19,21,24-25,27,29H2,2H3",484.75348,-6.53617468901,-0.6993325957850001,5.836842093225,0.45035379054583297
000004723,O=C1N=C(OC1c1ccccc1)N,C9H8N2O2,"InChI=1S/C9H8N2O2/c10-9-11-8(12)7(13-9)6-4-2-1-3-5-6/h1-5,7H,(H2,10,11,12)",176.17202,-6.4218868718,-0.6557943797050001,5.766092492095,5.332161897334139
000004724,OC(COc1ccccc1C1CCCC1)CNC(C)(C)C,C18H29NO2,"InChI=1S/C18H29NO2/c1-18(2,3)19-12-15(20)13-21-17-11-7-6-10-16(17)14-8-4-5-9-14/h6-7,10-11,14-15,19-20H,4-5,8-9,12-13H2,1-3H3",291.42836,-5.771534769105,0.12245123272500003,5.89398600183,1.687131938972468
000004725,OCC(CCn1cnc2c1[nH]c(N)nc2=O)CO,C10H15N5O3,"InChI=1S/C10H15N5O3/c11-10-13-8-7(9(18)14-10)12-5-15(8)2-1-6(3-16)4-17/h5-6,16-17H,1-4H2,(H3,11,13,14,18)",253.2578,-5.559285965715,-0.09251870917000016,5.466767256545,11.528039047342526
000004726,CCCCCC1Nc2cc(c(cc2S(=O)(=O)N1)S(=O)(=O)N)C(F)(F)F,C13H18F3N3O4S2,"InChI=1S/C13H18F3N3O4S2/c1-2-3-4-5-12-18-9-6-8(13(14,15)16)10(24(17,20)21)7-11(9)25(22,23)19-12/h6-7,12,18-19H,2-5H2,1H3,(H2,17,20,21)",401.4249296,-6.522568996485,-1.8068359673200005,4.7157330291649995,8.593129957519844
000004727,NC(C(S)(C)C)C(=O)O,C5H11NO2S,"InChI=1S/C5H11NO2S/c1-5(2,9)3(6)4(7)8/h3,9H,6H2,1-2H3,(H,7,8)",149.21134,-6.321204747115,-0.28844068153,6.032764065585,2.4816771375886106
000004728,COC1=CC(=O)OC1(O)C(=C)C,C8H10O4,"InChI=1S/C8H10O4/c1-5(2)8(10)6(11-3)4-7(9)12-8/h4,10H,1H2,2-3H3",170.1626,-6.947066603265001,-1.0258692163849998,5.921197386880001,4.47495961947837
000004731,O=C(NC1C(=O)N2C1SC(C2C(=O)O)(C)C)COc1ccccc1,C16H18N2O5S,"InChI=1S/C16H18N2O5S/c1-16(2)12(15(21)22)18-13(20)11(14(18)24-16)17-10(19)8-23-9-6-4-3-5-7-9/h3-7,11-12,14H,8H2,1-2H3,(H,17,19)(H,21,22)",350.38952,-6.36202182469,-0.93062936871,5.43139245598,6.217076862335385
000004733,O=c1c2cc3c(cc2c(=O)c2c1cccc2)c(=O)c1c(c3=O)cccc1,C22H10O4,InChI=1S/C22H10O4/c23-19-11-5-1-2-6-12(11)20(24)16-10-18-17(9-15(16)19)21(25)13-7-3-4-8-14(13)22(18)26/h1-10H,338.3124,-7.159315406655,-3.31434669909,3.8449687075649996,0.0001363964808930201
000004735,NC(=N)c1ccc(cc1)OCCCCCOc1ccc(cc1)C(=N)N,C19H24N4O2,"InChI=1S/C19H24N4O2/c20-18(21)14-4-8-16(9-5-14)24-12-2-1-3-13-25-17-10-6-15(7-11-17)19(22)23/h4-11H,1-3,12-13H2,(H3,20,21)(H3,22,23)",340.41946,-5.880380309305,-0.29388295854000024,5.586497350765,4.055876113222518
000004736,CC(=CCN1CCC2(C(C1Cc1c2cc(cc1)O)C)C)C,C19H27NO,"InChI=1S/C19H27NO/c1-13(2)7-9-20-10-8-19(4)14(3)18(20)11-15-5-6-16(21)12-17(15)19/h5-7,12,14,18,21H,8-11H2,1-4H3",285.42378,-5.336152608305,0.20136424937000008,5.5375168576750005,2.3120733518612684
000004737,CCCC(C1(CC)C(=O)NC(=O)NC1=O)C,C11H18N2O3,"InChI=1S/C11H18N2O3/c1-4-6-7(3)11(5-2)8(14)12-10(16)13-9(11)15/h7H,4-6H2,1-3H3,(H2,12,13,14,15,16)",226.27222,-7.235507284795001,-1.1646472801399996,6.070860004655001,1.2113015184717635
000004739,OCC1OC(CC1O)n1cnc2c1NC=NCC2O,C11H16N4O4,"InChI=1S/C11H16N4O4/c16-3-8-6(17)1-9(19-8)15-5-14-10-7(18)2-12-4-13-11(10)15/h4-9,16-18H,1-3H2,(H,12,13)",268.26914,-5.385133101395,0.07347073963499984,5.4586038410299995,7.719078106628343
000004740,CC(=O)CCCCn1c(=O)c2n(C)cnc2n(c1=O)C,C13H18N4O3,"InChI=1S/C13H18N4O3/c1-9(18)6-4-5-7-17-12(19)10-11(14-8-15(10)2)16(3)13(17)20/h8H,4-7H2,1-3H3",278.30702,-5.896707140335001,-1.0558017399400006,4.840905400395,4.511854010341536
000004744,CN1CCN(CC1)CCCN1c2ccccc2Sc2c1cccc2,C20H25N3S,"InChI=1S/C20H25N3S/c1-21-13-15-22(16-14-21)11-6-12-23-17-7-2-4-9-19(17)24-20-10-5-3-8-18(20)23/h2-5,7-10H,6,11-16H2,1H3",339.4976,-4.634098874015001,-0.454430130335,4.179668743680001,2.2296263829121683
000004745,CCCN1CC(CSC)CC2C1Cc1c[nH]c3c1c2ccc3,C19H26N2S,"InChI=1S/C19H26N2S/c1-3-7-21-11-13(12-22-2)8-16-15-5-4-6-17-19(15)14(10-20-17)9-18(16)21/h4-6,10,13,16,18,20H,3,7-9,11-12H2,1-2H3",314.48814,-5.13750949744,-0.029932523554999868,5.107576973885,1.6031345546166735
000004746,C1CCC(NC1)CC(C1CCCCC1)C1CCCCC1,C19H35N,"InChI=1S/C19H35N/c1-3-9-16(10-4-1)19(17-11-5-2-6-12-17)15-18-13-7-8-14-20-18/h16-20H,1-15H2",277.4879,-5.619151012825,1.782345720775,7.4014967336,1.1398593621745623
000004747,N#Cc1ccc2c(c1)N(CCCN1CCC(CC1)O)c1c(S2)cccc1,C21H23N3OS,"InChI=1S/C21H23N3OS/c22-15-16-6-7-21-19(14-16)24(18-4-1-2-5-20(18)26-21)11-3-10-23-12-8-17(25)9-13-23/h1-2,4-7,14,17,25H,3,8-13H2",365.49182,-5.091250142854999,-1.417713161105,3.6735369817499994,5.648259753724239
000004748,OCCN1CCN(CC1)CCCN1c2ccccc2Sc2c1cc(Cl)cc2,C21H26ClN3OS,"InChI=1S/C21H26ClN3OS/c22-17-6-7-21-19(16-17)25(18-4-1-2-5-20(18)27-21)9-3-8-23-10-12-24(13-11-23)14-15-26/h1-2,4-7,16,26H,3,8-15H2",403.96864,-4.840905400395,-0.5823236400700003,4.258581760325,4.156312109020207
000004753,O=C(Cc1ccccc1)NC(=O)N,C9H10N2O2,"InChI=1S/C9H10N2O2/c10-9(13)11-8(12)6-7-4-2-1-3-5-7/h1-5H,6H2,(H3,10,11,12,13)",178.1879,-6.816451955025,-0.6122561636250001,6.2041957914,2.682216514911874
000004754,CCOc1ccc(cc1)NC(=O)C,C10H13NO2,"InChI=1S/C10H13NO2/c1-3-13-10-6-4-9(5-7-10)11-8(2)12/h4-7H,3H2,1-2H3,(H,11,12)",179.21572,-5.227307068105,0.005442277010000218,5.232749345115,4.223461222899294
000004755,NC(=NC(=O)c1nc(Cl)c(nc1N)N)Nc1ccccc1,C12H12ClN7O,"InChI=1S/C12H12ClN7O/c13-8-10(15)19-9(14)7(18-8)11(21)20-12(16)17-6-4-2-1-3-5-6/h1-5H,(H4,14,15,19)(H3,16,17,20,21)",305.72298,-5.2790086997,-1.3034253438949999,3.9755833558050004,1.9372448204460373
000004756,Nc1ccc(c(n1)N)N=Nc1ccccc1,C11H11N5,"InChI=1S/C11H11N5/c12-10-7-6-9(11(13)14-10)16-15-8-4-2-1-3-5-8/h1-7H,(H4,12,13,14)",213.23854,-5.1837688520250005,-1.597308302435,3.5864605495900004,2.4126317393719665
000004757,c1ccc2c(c1)nc1c(n2)cccc1,C12H8N2,InChI=1S/C12H8N2/c1-2-6-10-9(5-1)13-11-7-3-4-8-12(11)14-10/h1-8H,180.20532,-6.147051882795,-2.4082075769249998,3.7388443058700003,2.4596747752497687e-05
000004759,CC(C(=O)NC1C(=O)N2C1SC(C2C(=O)O)(C)C)Oc1ccccc1,C17H20N2O5S,"InChI=1S/C17H20N2O5S/c1-9(24-10-7-5-4-6-8-10)13(20)18-11-14(21)19-12(16(22)23)17(2,3)25-15(11)19/h4-9,11-12,15H,1-3H3,(H,18,20)(H,22,23)",364.4161,-6.196032375885,-0.8027358589749998,5.3932965169100004,6.14731847458101
000004760,O=C1C(c2ccccc2)C(=O)c2c1cccc2,C15H10O2,"InChI=1S/C15H10O2/c16-14-11-8-4-5-9-12(11)15(17)13(14)10-6-2-1-3-7-10/h1-9,13H",222.2387,-6.44909825685,-2.201401050545,4.247697206305,3.2432251307021533
000004761,CN(CCC(c1ccccn1)c1ccccc1)C,C16H20N2,"InChI=1S/C16H20N2/c1-18(2)13-11-15(14-8-4-3-5-9-14)16-10-6-7-12-17-16/h3-10,12,15H,11,13H2,1-2H3",240.3434,-5.7905827386399995,-0.5687179475450002,5.221864791094999,1.1022216910168299
000004762,CC1NCCOC1c1ccccc1,C11H15NO,"InChI=1S/C11H15NO/c1-9-11(13-8-7-12-9)10-5-3-2-4-6-10/h2-6,9,11-12H,7-8H2,1H3",177.2429,-5.997389265020001,0.08163415514999972,6.07902342017,1.4166808783611078
000004763,CCC1(C(=O)NC(=O)NC1=O)c1ccccc1,C12H12N2O3,"InChI=1S/C12H12N2O3/c1-2-12(8-6-4-3-5-7-8)9(15)13-11(17)14-10(12)16/h3-7H,2H2,1H3,(H2,13,14,15,16,17)",232.23528,-6.919855218215001,-1.3551269754900002,5.564728242725001,1.3354554340280325