mol_id,SMILES,formula,inchi,mass,HOMO(eV),LUMO(eV),GAP(eV),dipole_moment
000001854,OC(=O)c1ccc2c(c1)ccc(c2)C(P(=O)(O)O)(F)F,C12H9F2O5P,"InChI=1S/C12H9F2O5P/c13-12(14,20(17,18)19)10-4-3-7-5-9(11(15)16)2-1-8(7)6-10/h1-6H,(H,15,16)(H2,17,18,19)",302.1674274,-6.60148201313,-1.9809888316400004,4.62049318149,4.636591780247643
000001855,OCC(Cc1[nH]c(=O)[nH]c(=O)c1C)CO,C9H14N2O4,"InChI=1S/C9H14N2O4/c1-5-7(2-6(3-12)4-13)10-9(15)11-8(5)14/h6,12-13H,2-4H2,1H3,(H2,10,11,14,15)",214.21846,-6.6205299826649995,-1.3306367289450005,5.289893253719999,2.5182776249353447
000001856,OC1C(O)C(OC1n1ncc(=O)[nH]c1=O)COP(=O)(O)O,C8H12N3O9P,"InChI=1S/C8H12N3O9P/c12-4-1-9-11(8(15)10-4)7-6(14)5(13)3(20-7)2-19-21(16,17)18/h1,3,5-7,13-14H,2H2,(H,10,12,15)(H2,16,17,18)",325.169341,-7.328025993964999,-2.52521653264,4.802809461324999,3.408242944300039
000001857,Nc1nc(nc(c1)Cl)SC(c1ncc2c(c1)cco2)C,C13H11ClN4OS,"InChI=1S/C13H11ClN4OS/c1-7(20-13-17-11(14)5-12(15)18-13)9-4-8-2-3-19-10(8)6-16-9/h2-7H,1H3,(H2,15,17,18)",306.77064,-5.91575510987,-0.99593669283,4.91981841704,4.582667091786288
000001858,COc1cc2c(CCNC(=O)C)c[nH]c2cc1Cl,C13H15ClN2O2,"InChI=1S/C13H15ClN2O2/c1-8(17)15-4-3-9-7-16-12-6-11(14)13(18-2)5-10(9)12/h5-7,16H,3-4H2,1-2H3,(H,15,17)",266.7234,-5.455882702525001,-0.5061317619299999,4.949750940595001,1.8834535096694052
000001861,CN(c1ncnc2c1cc[nH]2)C,C8H10N4,"InChI=1S/C8H10N4/c1-12(2)8-6-3-4-9-7(6)10-5-11-8/h3-5H,1-2H3,(H,9,10,11)",162.1918,-5.336152608305,-0.39728622172999994,4.938866386575,3.4680965998883306
000001862,NCC(c1cc(O)c(cc1F)O)O,C8H10FNO3,"InChI=1S/C8H10FNO3/c9-5-2-7(12)6(11)1-4(5)8(13)3-10/h1-2,8,11-13H,3,10H2",187.1683032,-5.488536364585,-0.010884554020000436,5.477651810565,4.105597313524793
000001863,O=Cc1c2[nH]c3c(c2cc2c1c1ccccc1[nH]2)cccc3,C19H12N2O,"InChI=1S/C19H12N2O/c22-10-14-18-12-6-2-4-8-16(12)20-17(18)9-13-11-5-1-3-7-15(11)21-19(13)14/h1-10,20-21H",284.31138,-5.2354704836199994,-1.8639798759250001,3.3714906076949993,3.4657741925486145
000001864,COc1cc2c(CCNC(=O)C)c[nH]c2cc1O,C13H16N2O3,"InChI=1S/C13H16N2O3/c1-8(16)14-4-3-9-7-15-11-6-12(17)13(18-2)5-10(9)11/h5-7,15,17H,3-4H2,1-2H3,(H,14,16)",248.27774,-4.96879891013,-0.05714390860500007,4.911655001525,3.1555428065210904
000001865,OCCCc1[nH]c(=O)[nH]c(=O)c1C,C8H12N2O3,"InChI=1S/C8H12N2O3/c1-5-6(3-2-4-11)9-8(13)10-7(5)12/h11H,2-4H2,1H3,(H2,9,10,12,13)",184.19248,-6.37834865572,-1.1156667870500003,5.26268186867,5.755672049380506
000001866,CCCCCC(C=CC1C(O)CC(C1CC(=O)CCCCC(=O)O)O)O,C20H34O6,"InChI=1S/C20H34O6/c1-2-3-4-7-14(21)10-11-16-17(19(24)13-18(16)23)12-15(22)8-5-6-9-20(25)26/h10-11,14,16-19,21,23-24H,2-9,12-13H2,1H3,(H,25,26)",370.48036,-6.55250152004,-0.5687179475450002,5.983783572495,4.966298175278041
000001868,COc1ccc2c(c1)c1CCNCc1[nH]2,C12H14N2O,"InChI=1S/C12H14N2O/c1-15-8-2-3-11-10(6-8)9-4-5-13-7-12(9)14-11/h2-3,6,13-14H,4-5,7H2,1H3",202.25236,-4.949750940595,-0.04898049309000019,4.900770447505,2.6693900016106675
000001869,OCC1OC(C(C1O)O)n1cnc2c1ncnc2NC,C11H15N5O4,"InChI=1S/C11H15N5O4/c1-12-9-6-10(14-3-13-9)16(4-15-6)11-8(19)7(18)5(2-17)20-11/h3-5,7-8,11,17-19H,2H2,1H3,(H,12,13,14)",281.2679,-5.842284370235,-0.8898122911349997,4.9524720791000005,3.215981141972384
000001870,CCCCCCNc1ncnc2c1[nH]cn2,C11H17N5,"InChI=1S/C11H17N5/c1-2-3-4-5-6-12-10-9-11(14-7-13-9)16-8-15-10/h7-8H,2-6H2,1H3,(H2,12,13,14,15,16)",219.28618,-5.921197386879999,-0.8408317980450004,5.080365588834999,7.428902737991392
000001871,O=Nc1ccc2c(c1)ccc(=O)o2,C9H5NO3,InChI=1S/C9H5NO3/c11-9-4-1-6-5-7(10-12)2-3-8(6)13-9/h1-5H,175.1409,-5.9348030794049995,-2.69392711995,3.2408759594549994,2.074000726409227
000001872,C=CCN1CC(C=C2C1Cc1c[nH]c3c1c2ccc3)C(=O)N(CC)CC,C22H27N3O,"InChI=1S/C22H27N3O/c1-4-10-25-14-16(22(26)24(5-2)6-3)11-18-17-8-7-9-19-21(17)15(13-23-19)12-20(18)25/h4,7-9,11,13,16,20,23H,1,5-6,10,12,14H2,2-3H3",349.46928,-5.227307068105,-0.6884480417649996,4.53885902634,4.7600939556006665
000001873,O=CC(C(C(C(COC1OC(CO)C(C(C1NC(=O)C)O)O)O)O)O)O,C14H25NO11,"InChI=1S/C14H25NO11/c1-5(18)15-9-13(24)12(23)8(3-17)26-14(9)25-4-7(20)11(22)10(21)6(19)2-16/h2,6-14,17,19-24H,3-4H2,1H3,(H,15,18)",383.3484,-6.381069794225,-1.1020610945250002,5.279008699699999,3.8841929114260023
000001874,OC1C(O)C(OC1n1cnc2c1ncnc2OP(=O)(O)O)COP(=O)(O)O,C10H14N4O11P2,"InChI=1S/C10H14N4O11P2/c15-6-4(1-23-26(17,18)19)24-10(7(6)16)14-3-13-5-8(14)11-2-12-9(5)25-27(20,21)22/h2-4,6-7,10,15-16H,1H2,(H2,17,18,19)(H2,20,21,22)",428.185882,-7.0967292210399995,-1.651731072535,5.444998148504999,5.308446258843166
000001875,OC(=O)CCC(=O)OCC(=O)C1(O)CCC2C1(C)CC(O)C1C2CC(C2=CC(=O)C=CC12C)C,C26H34O8,"InChI=1S/C26H34O8/c1-14-10-16-17-7-9-26(33,20(29)13-34-22(32)5-4-21(30)31)25(17,3)12-19(28)23(16)24(2)8-6-15(27)11-18(14)24/h6,8,11,14,16-17,19,23,28,33H,4-5,7,9-10,12-13H2,1-3H3,(H,30,31)",474.54336,-5.815072985185,-2.435418961975,3.37965402321,5.724490148593235
000001876,C=CC1(C)CC(=O)C2C(O1)(C)CC(C1C2(C)CCCC1(C)C)O,C20H32O3,"InChI=1S/C20H32O3/c1-7-18(4)11-13(21)16-19(5)10-8-9-17(2,3)15(19)14(22)12-20(16,6)23-18/h7,14-16,22H,1,8-12H2,2-6H3",320.46628,-6.43277142582,-0.6040927481100002,5.82867867771,2.1630298122164198
000001877,CCCCCCCCCCCC=CC(C=CCCCC(=O)O)(C)C,C22H40O2,"InChI=1S/C22H40O2/c1-4-5-6-7-8-9-10-11-12-13-16-19-22(2,3)20-17-14-15-18-21(23)24/h16-17,19-20H,4-15,18H2,1-3H3,(H,23,24)",336.5518,-6.2041957914,0.1578260332900001,6.36202182469,4.351721276696958
000001878,CCCc1cc(=O)oc2c1c1OC(C)(C)CCc1c1c2C(=O)C(C(O1)C)C,C22H26O5,"InChI=1S/C22H26O5/c1-6-7-13-10-15(23)26-21-16(13)20-14(8-9-22(4,5)27-20)19-17(21)18(24)11(2)12(3)25-19/h10-12H,6-9H2,1-5H3",370.43884,-5.80146729266,-1.4013863300749998,4.400080962585,9.614931494798336
000001879,CC(C(C1CN=c2c(=N1)c(=O)nc([nH]2)N)O)O,C9H13N5O3,"InChI=1S/C9H13N5O3/c1-3(15)6(16)4-2-11-7-5(12-4)8(17)14-9(10)13-7/h3-4,6,15-16H,2H2,1H3,(H3,10,11,13,14,17)",239.23122,-6.391954348245,-2.57419702573,3.817757322515,6.592198776517969
000001880,Oc1ccc2c(c1O)oc(cc2=O)c1ccccc1,C15H10O4,"InChI=1S/C15H10O4/c16-11-7-6-10-12(17)8-13(19-15(10)14(11)18)9-4-2-1-3-5-9/h1-8,16,18H",254.2375,-5.94840877193,-1.59458716393,4.353821608,5.555874813665711
000001881,CCC(n1ccc2c1ccc1c2c(N)nc(n1)N)CC,C15H19N5,"InChI=1S/C15H19N5/c1-3-9(4-2)20-8-7-10-12(20)6-5-11-13(10)14(16)19-15(17)18-11/h5-9H,3-4H2,1-2H3,(H4,16,17,18,19)",269.34486,-4.85451109292,-0.7619187814000004,4.09259231152,3.856805705554922
000001882,ClCCn1cnc2c1c(=O)n(C)c(=O)n2C,C9H11ClN4O2,"InChI=1S/C9H11ClN4O2/c1-12-7-6(8(15)13(2)9(12)16)14(4-3-10)5-11-7/h5H,3-4H2,1-2H3",242.66224,-5.98106243399,-1.118387925555,4.862674508435,2.1691801373378374
000001883,O=C1C(N)C2N1C(=C(CS2)C)C(=O)O,C8H10N2O3S,"InChI=1S/C8H10N2O3S/c1-3-2-14-7-4(9)6(11)10(7)5(3)8(12)13/h4,7H,2,9H2,1H3,(H,12,13)",214.2416,-6.416444594790001,-1.2870985128650005,5.129346081925,4.991778414565795
000001884,Clc1ccc2c(c1)[nH]c(cc2=O)C(=O)O,C10H6ClNO3,"InChI=1S/C10H6ClNO3/c11-5-1-2-6-7(3-5)12-8(10(14)15)4-9(6)13/h1-4H,(H,12,13)(H,14,15)",223.61254,-6.54161696602,-2.36739049935,4.17422646667,0.8582420302770075
000001885,O=C1OC(c2ccoc2)C2(C3(C1O3)C1(C)C(O)CC3C(C1CC2)(C)C=CC(=O)C3(C)C)C,C26H32O6,"InChI=1S/C26H32O6/c1-22(2)16-12-18(28)25(5)15(23(16,3)9-7-17(22)27)6-10-24(4)19(14-8-11-30-13-14)31-21(29)20-26(24,25)32-20/h7-9,11,13,15-16,18-20,28H,6,10,12H2,1-5H3",440.52868,-6.22596489944,-1.4884627622349997,4.737502137205,4.515558265870124
000001886,O=C1OC(c2ccoc2)C2(C3(C1O3)C1(C)C(=O)CC3C(C1CC2)(C)C=CC(=O)C3(C)C)C,C26H30O6,"InChI=1S/C26H30O6/c1-22(2)16-12-18(28)25(5)15(23(16,3)9-7-17(22)27)6-10-24(4)19(14-8-11-30-13-14)31-21(29)20-26(24,25)32-20/h7-9,11,13,15-16,19-20H,6,10,12H2,1-5H3",438.5128,-6.283108808045,-1.6653367650600002,4.617772042985,7.599087725981915
000001887,C=CC1(C)CC(=O)C2C(O1)(C)C(O)C(C1C2(C)CCCC1(C)C)O,C20H32O4,"InChI=1S/C20H32O4/c1-7-18(4)11-12(21)14-19(5)10-8-9-17(2,3)15(19)13(22)16(23)20(14,6)24-18/h7,13-16,22-23H,1,8-11H2,2-6H3",336.46568,-6.495357611435,-0.7755244739250005,5.719833137509999,3.3518680469482987
000001888,C=CC1(C)CC(=O)C2(C(O1)(C)C(O)C(C1C2(C)CCCC1(C)C)O)O,C20H32O5,"InChI=1S/C20H32O5/c1-7-17(4)11-12(21)20(24)18(5)10-8-9-16(2,3)14(18)13(22)15(23)19(20,6)25-17/h7,13-15,22-24H,1,8-11H2,2-6H3",352.46508,-6.4218868718,-0.873485460105,5.548401411695,2.1693474815450844
000001889,Oc1ccc(cc1)C1CC(=O)c2c(O1)cc(cc2)O,C15H12O4,"InChI=1S/C15H12O4/c16-10-3-1-9(2-4-10)14-8-13(18)12-6-5-11(17)7-15(12)19-14/h1-7,14,16-17H,8H2",256.25338,-5.9348030794049995,-1.2027432192100003,4.732059860194999,2.833378146203574
000001890,Oc1ccc2c(c1)OC(CC2=O)c1ccccc1,C15H12O3,"InChI=1S/C15H12O3/c16-11-6-7-12-13(17)9-14(18-15(12)8-11)10-4-2-1-3-5-10/h1-8,14,16H,9H2",240.25398,-6.1797055448550005,-1.2353968812699998,4.944308663585001,1.794526636356507
000001892,OCCn1cnc2c1c(=O)n(C)c(=O)n2C,C9H12N4O3,"InChI=1S/C9H12N4O3/c1-11-7-6(8(15)12(2)9(11)16)13(3-4-14)5-10-7/h5,14H,3-4H2,1-2H3",224.21658,-6.019158373060001,-1.1483204491099999,4.870837923950001,1.805516871376449
000001893,[O-][N+](=O)c1cccc2c1[nH]nc2,C7H5N3O2,"InChI=1S/C7H5N3O2/c11-10(12)6-3-1-2-5-4-8-9-7(5)6/h1-4H,(H,8,9)",163.1335,-6.762029184925,-2.647667765365,4.11436141956,3.8305912106372038
000001894,[O-][N+](=O)c1cccc2c1nn(c2)C(=N)N,C8H7N5O2,"InChI=1S/C8H7N5O2/c9-8(10)12-4-5-2-1-3-6(13(14)15)7(5)11-12/h1-4H,(H3,9,10)",205.17348,-6.484473057415,-2.500726286095,3.9837467713200003,4.996037387992808
000001896,OC1C(COP(=O)(OP(=O)(O)O)O)OC(C1O)N1CN(c2c1[nH]c(N)nc2=O)C,C11H19N5O11P2,"InChI=1S/C11H19N5O11P2/c1-15-3-16(8-5(15)9(19)14-11(12)13-8)10-7(18)6(17)4(26-10)2-25-29(23,24)27-28(20,21)22/h4,6-7,10,17-18H,2-3H2,1H3,(H,23,24)(H2,20,21,22)(H3,12,13,14,19)",459.242982,-5.08852900435,-0.5959293325950004,4.492599671754999,6.516302537847364
000001897,CCCCCC(C=CC=CC=CC(CC=CCCCC(=O)O)O)O,C20H32O4,"InChI=1S/C20H32O4/c1-2-3-8-13-18(21)14-9-4-5-10-15-19(22)16-11-6-7-12-17-20(23)24/h4-6,9-11,14-15,18-19,21-22H,2-3,7-8,12-13,16-17H2,1H3,(H,23,24)",336.46568,-5.6599680904,-1.2299546042599996,4.43001348614,3.654864344942094
000001898,CCCCCC=CCC=CC=CC(CC=CCCCC(=O)O)O,C20H32O3,"InChI=1S/C20H32O3/c1-2-3-4-5-6-7-8-9-10-13-16-19(21)17-14-11-12-15-18-20(22)23/h6-7,9-11,13-14,16,19,21H,2-5,8,12,15,17-18H2,1H3,(H,22,23)",320.46628,-5.91031283286,-0.6449098256849997,5.265403007175,4.779594483296046
000001899,CCCCCCCCC#CCC#CCCCCCCC(=O)O,C20H32O2,"InChI=1S/C20H32O2/c1-2-3-4-5-6-7-8-9-10-11-12-13-14-15-16-17-18-19-20(21)22/h2-8,11,14-19H2,1H3,(H,21,22)",304.46688,-6.40011776376,0.20408538787499975,6.604203151635,4.188415040766733
000001900,OC1Cc2cc3c(cc2C(C1O)O)ccc1c3cccc1,C18H16O3,"InChI=1S/C18H16O3/c19-16-9-12-8-14-11(7-15(12)17(20)18(16)21)6-5-10-3-1-2-4-13(10)14/h1-8,16-21H,9H2",280.31784,-5.858611201265,-1.205464357715,4.65314684355,3.004709787580491
000001901,CCCCCC=CCC=CCC1OC1CC=CCCCC(=O)O,C20H32O3,"InChI=1S/C20H32O3/c1-2-3-4-5-6-7-8-9-12-15-18-19(23-18)16-13-10-11-14-17-20(21)22/h6-7,9-10,12-13,18-19H,2-5,8,11,14-17H2,1H3,(H,21,22)",320.46628,-6.3130413316,-0.165989448805,6.147051882795,2.3086520209529193
000001902,Clc1cccc(c1)C=Cc1nc2c(n1C)c(=O)n(c(=O)n2C)C,C16H15ClN4O2,"InChI=1S/C16H15ClN4O2/c1-19-12(8-7-10-5-4-6-11(17)9-10)18-14-13(19)15(22)21(3)16(23)20(14)2/h4-9H,1-3H3",330.7689,-5.6599680904,-1.940171754065,3.7197963363349995,3.509684326687801
000001904,OC1C2OP(=O)(O)OCC2OC1n1c(Sc2ccc(cc2)Cl)nc2c1ncnc2N,C16H15ClN5O6PS,"InChI=1S/C16H15ClN5O6PS/c17-7-1-3-8(4-2-7)30-16-21-10-13(18)19-6-20-14(10)22(16)15-11(23)12-9(27-15)5-26-29(24,25)28-12/h1-4,6,9,11-12,15,23H,5H2,(H,24,25)(H2,18,19,20)",471.811961,-5.752486799570001,-0.9143025376800002,4.83818426189,3.4937886076616027
000001906,NCCCCCCNc1nc2c(n1C1OC3C(C1O)OP(=O)(OC3)O)ncnc2N,C16H26N7O6P,"InChI=1S/C16H26N7O6P/c17-5-3-1-2-4-6-19-16-22-10-13(18)20-8-21-14(10)23(16)15-11(24)12-9(28-15)7-27-30(25,26)29-12/h8-9,11-12,15,24H,1-7,17H2,(H,19,22)(H,25,26)(H2,18,20,21)",443.394701,-5.972899018475,-0.8408317980450004,5.13206722043,3.7639064005560763
000001907,NCCCCCCNc1nc2c(n1C1OC(C(C1O)O)COP(=O)(O)O)ncnc2N,C16H28N7O7P,"InChI=1S/C16H28N7O7P/c17-5-3-1-2-4-6-19-16-22-10-13(18)20-8-21-14(10)23(16)15-12(25)11(24)9(30-15)7-29-31(26,27)28/h8-9,11-12,15,24-25H,1-7,17H2,(H,19,22)(H2,18,20,21)(H2,26,27,28)",461.409981,-5.221864791094999,-0.26395043498500037,4.957914356109999,2.769883985260935
000001908,Cn1c2nc([nH]c2c(=O)n(c1=O)C)c1ccc(cc1)S(=O)(=O)O,C13H12N4O5S,"InChI=1S/C13H12N4O5S/c1-16-11-9(12(18)17(2)13(16)19)14-10(15-11)7-3-5-8(6-4-7)23(20,21)22/h3-6H,1-2H3,(H,14,15)(H,20,21,22)",336.32318,-6.16609985233,-2.424534407955,3.7415654443750004,1.568197682526664
000001917,Cn1c2nc([nH]c2c(=O)n(c1=O)C)C1CCCC1,C12H16N4O2,"InChI=1S/C12H16N4O2/c1-15-10-8(11(17)16(2)12(15)18)13-9(14-10)7-5-3-4-6-7/h7H,3-6H2,1-2H3,(H,13,14)",248.28104,-5.74704452256,-0.8489952135600003,4.898049309,4.410186107464967
000001921,CCCCN1C(=O)C(C)C(=O)c2c1nc([nH]2)COC,C13H19N3O3,"InChI=1S/C13H19N3O3/c1-4-5-6-16-12-10(11(17)8(2)13(16)18)14-9(15-12)7-19-3/h8H,4-7H2,1-3H3,(H,14,15)",265.30826,-5.80690956967,-1.4830204852250004,4.323889084445,3.6402610122213765
000001922,Cn1c2nc([nH]c2c(=O)n(c1=O)C)c1ccccc1,C13H12N4O2,"InChI=1S/C13H12N4O2/c1-16-11-9(12(18)17(2)13(16)19)14-10(15-11)8-6-4-3-5-7-8/h3-7H,1-2H3,(H,14,15)",256.25998,-5.7606502150850005,-1.515674147285,4.244976067800001,4.320780638611615
000001923,Oc1cccc2c1nccc2,C9H7NO,"InChI=1S/C9H7NO/c11-8-5-1-3-7-4-2-6-10-9(7)8/h1-6,11H",145.15798,-5.7035063064800005,-1.3959440530650005,4.307562253415,2.260094510723611
000001924,SCc1nc2c(n1C1OC3C(C1O)OP(=O)(OC3)O)ncnc2N,C11H14N5O6PS,"InChI=1S/C11H14N5O6PS/c12-9-6-10(14-3-13-9)16(5(2-24)15-6)11-7(17)8-4(21-11)1-20-23(18,19)22-8/h3-4,7-8,11,17,24H,1-2H2,(H,18,19)(H2,12,13,14)",375.297521,-6.12256163625,-1.1347147565849998,4.987846879665001,3.973575531519314
000001925,OCC1=Nc2c(NC1(C)CCc1ccccc1)[nH]c(nc2=O)N,C16H19N5O2,"InChI=1S/C16H19N5O2/c1-16(8-7-10-5-3-2-4-6-10)11(9-22)18-12-13(21-16)19-15(17)20-14(12)23/h2-6,22H,7-9H2,1H3,(H4,17,19,20,21,23)",313.35436,-5.24091276063,-0.9904944158199998,4.25041834481,8.98846444007084
000001926,CCCCCC=CCC=CCC(C=CC=CCCCC(=O)O)O,C20H32O3,"InChI=1S/C20H32O3/c1-2-3-4-5-6-7-8-10-13-16-19(21)17-14-11-9-12-15-18-20(22)23/h6-7,9-11,13-14,17,19,21H,2-5,8,12,15-16,18H2,1H3,(H,22,23)",320.46628,-6.043648619605,-0.7238228423299997,5.319825777275001,3.4383571275469627
000001927,CCCCCC=CC=CC(CCCCCCCC(=O)O)O,C18H32O3,"InChI=1S/C18H32O3/c1-2-3-4-5-6-8-11-14-17(19)15-12-9-7-10-13-16-18(20)21/h6,8,11,14,17,19H,2-5,7,9-10,12-13,15-16H2,1H3,(H,20,21)",296.44488,-5.7688136305999995,-0.42449760678000015,5.344316023819999,5.716393067390048
000001928,CCCCCC=CC=CC(CCCCCCCC(=O)O)OO,C18H32O4,"InChI=1S/C18H32O4/c1-2-3-4-5-6-8-11-14-17(22-21)15-12-9-7-10-13-16-18(19)20/h6,8,11,14,17,21H,2-5,7,9-10,12-13,15-16H2,1H3,(H,19,20)",312.44428,-5.71983313751,-0.3809593907000002,5.33887374681,3.4854888523628933
000001929,CCCCCC=CCC1OC1CCCCCCCC(=O)O,C18H32O3,"InChI=1S/C18H32O3/c1-2-3-4-5-7-10-13-16-17(21-16)14-11-8-6-9-12-15-18(19)20/h7,10,16-17H,2-6,8-9,11-15H2,1H3,(H,19,20)",296.44488,-6.473588503395,0.21496994189500018,6.68855844529,5.242251310453649
000001930,CCCCCCCCC=CCCCCCCCC(=O)N,C18H35NO,"InChI=1S/C18H35NO/c1-2-3-4-5-6-7-8-9-10-11-12-13-14-15-16-17-18(19)20/h9-10H,2-8,11-17H2,1H3,(H2,19,20)",281.4766,-6.250455145985,0.8163415514999999,7.066796697485,3.334799300699669
000001931,CCCCCC#CCC#CCCCCCCCC(=O)O,C18H28O2,"InChI=1S/C18H28O2/c1-2-3-4-5-6-7-8-9-10-11-12-13-14-15-16-17-18(19)20/h2-5,8,11-17H2,1H3,(H,19,20)",276.41372,-6.38379093273,0.21224880338999963,6.59603973612,4.319054527493373
000001932,Nc1ncnc2c1ncn2C1CCCCO1,C10H13N5O,"InChI=1S/C10H13N5O/c11-9-8-10(13-5-12-9)15(6-14-8)7-3-1-2-4-16-7/h5-7H,1-4H2,(H2,11,12,13)",219.24312,-5.7143908605,-0.4816415153850002,5.232749345115,3.2942110113282057
000001933,c1ccc(cc1)CNc1c2CCCCc2nc2c1cccc2,C20H20N2,"InChI=1S/C20H20N2/c1-2-8-15(9-3-1)14-21-20-16-10-4-6-12-18(16)22-19-13-7-5-11-17(19)20/h1-4,6,8-10,12H,5,7,11,13-14H2,(H,21,22)",288.3862,-5.608266458805001,-1.1020610945250002,4.50620536428,3.076897536790265
000001934,CC(=CC=CC(CC(=O)O)C)C=Cc1c(C)cc(cc1C)O,C19H24O3,"InChI=1S/C19H24O3/c1-13(6-5-7-14(2)10-19(21)22)8-9-18-15(3)11-17(20)12-16(18)4/h5-9,11-12,14,20H,10H2,1-4H3,(H,21,22)",300.39206,-5.50758433412,-0.7510342273799999,4.75655010674,4.981522709840235
000001935,Nc1c2CCCCc2nc2c1cccc2,C13H14N2,"InChI=1S/C13H14N2/c14-13-9-5-1-3-7-11(9)15-12-8-4-2-6-10(12)13/h1,3,5,7H,2,4,6,8H2,(H2,14,15)",198.26366,-5.45860384103,-0.9061391221650004,4.552464718865,3.3132937538698557
000001936,NCC(C(C1OC(=CC(C1NC(=O)C)O)C(=O)O)O)O,C11H18N2O7,"InChI=1S/C11H18N2O7/c1-4(14)13-8-5(15)2-7(11(18)19)20-10(8)9(17)6(16)3-12/h2,5-6,8-10,15-17H,3,12H2,1H3,(H,13,14)(H,18,19)",290.26982,-6.61236656715,-1.1945798036950004,5.417786763454999,7.012486676544491
000001938,OCC1OC(C(C1O)O)c1c[nH]c2c1[nH]cnc2=O,C11H13N3O5,"InChI=1S/C11H13N3O5/c15-2-5-8(16)9(17)10(19-5)4-1-12-7-6(4)13-3-14-11(7)18/h1,3,5,8-10,12,15-17H,2H2,(H,13,14,18)",267.23802,-5.9320819409,-0.764639919905,5.167442020995,5.5435239953865985
000001939,NCC(C(C1OC(OC)(CC(C1NC(=O)C)O)C(=O)O)O)O,C12H22N2O8,"InChI=1S/C12H22N2O8/c1-5(15)14-8-6(16)3-12(21-2,11(19)20)22-10(8)9(18)7(17)4-13/h6-10,16-18H,3-4,13H2,1-2H3,(H,14,15)(H,19,20)",322.31168,-6.489915334425,-0.016326831029999767,6.473588503395,3.5288856839951617
000001940,C=CC1(C)CC(=O)C2C(O1)(C)C(OC(=O)C)C(C1C2(C)C(O)CCC1(C)C)O,C22H34O6,"InChI=1S/C22H34O6/c1-8-20(5)11-13(24)16-21(6)14(25)9-10-19(3,4)17(21)15(26)18(27-12(2)23)22(16,7)28-20/h8,14-18,25-26H,1,9-11H2,2-7H3",394.50176,-6.32936816263,-0.6367464101699998,5.69262175246,2.923805466657794
000001941,COc1c(O)ccc2c1cc([N+](=O)[O-])c1c2c2OCOc2cc1C(=O)O,C17H11NO8,"InChI=1S/C17H11NO8/c1-24-15-8-4-10(18(22)23)13-9(17(20)21)5-12-16(26-6-25-12)14(13)7(8)2-3-11(15)19/h2-5,19H,6H2,1H3,(H,20,21)",357.27114,-5.866774616780001,-2.47623603955,3.390538577230001,8.179227056092648
000001942,CC(Cn1cnc2c1ncnc2N)O,C8H11N5O,"InChI=1S/C8H11N5O/c1-5(14)2-13-4-12-6-7(9)10-3-11-8(6)13/h3-5,14H,2H2,1H3,(H2,9,10,11)",193.20584,-5.921197386879999,-0.742870811865,5.178326575014999,1.0898914854874315
000001943,CC(=CCONC(=O)CP(=O)(O)O)CCC=C(CCC=C(C)C)C,C17H30NO5P,"InChI=1S/C17H30NO5P/c1-14(2)7-5-8-15(3)9-6-10-16(4)11-12-23-18-17(19)13-24(20,21)22/h7,9,11H,5-6,8,10,12-13H2,1-4H3,(H,18,19)(H2,20,21,22)",359.397561,-6.087186835685,-1.0476383244249998,5.0395485112600005,1.890168736266686
000001944,O=C(Cc1ccccc1C)Nc1cc(C)c(c(c1)C)S(=O)(=O)NCC(=O)O,C19H22N2O5S,"InChI=1S/C19H22N2O5S/c1-12-6-4-5-7-15(12)10-17(22)21-16-8-13(2)19(14(3)9-16)27(25,26)20-11-18(23)24/h4-9,20H,10-11H2,1-3H3,(H,21,22)(H,23,24)",390.45338,-6.576991766585,-1.5537700863549997,5.023221680230001,8.756336766469927
000001947,OCC(C(=O)O)NCc1c(cnc(c1O)C)COP(=O)(O)O,C11H17N2O8P,"InChI=1S/C11H17N2O8P/c1-6-10(15)8(3-13-9(4-14)11(16)17)7(2-12-6)5-21-22(18,19)20/h2,9,13-15H,3-5H2,1H3,(H,16,17)(H2,18,19,20)",336.235041,-6.185147821865,-0.9061391221650004,5.279008699699999,4.320227737040144
000001948,OC(=O)CNS(=O)(=O)c1ccc(cc1)N1CCC(CC1)c1ccccc1,C19H22N2O4S,"InChI=1S/C19H22N2O4S/c22-19(23)14-20-26(24,25)18-8-6-17(7-9-18)21-12-10-16(11-13-21)15-4-2-1-3-5-15/h1-9,16,20H,10-14H2,(H,22,23)",374.45398,-5.8694957552850004,-1.0204269393750005,4.84906881591,8.216189210261225
000001950,O=C(NCP(=O)(O)O)OCc1ccccc1,C9H12NO5P,"InChI=1S/C9H12NO5P/c11-9(10-7-16(12,13)14)15-6-8-4-2-1-3-5-8/h1-5H,6-7H2,(H,10,11)(H2,12,13,14)",245.169041,-6.8001251239950005,-0.3673536981750001,6.43277142582,2.7507609238501627
000001956,O=C(NC(P(=O)(O)O)c1ccc(cc1)C(=N)N)OCc1ccccc1,C16H18N3O5P,"InChI=1S/C16H18N3O5P/c17-14(18)12-6-8-13(9-7-12)15(25(21,22)23)19-16(20)24-10-11-4-2-1-3-5-11/h1-9,15H,10H2,(H3,17,18)(H,19,20)(H2,21,22,23)",363.304981,-6.375627517215,-0.8789277371150002,5.4966997801,3.3487197944792277
000001957,NC(C(=O)N1CCCC1C(=O)NCCNc1ccncc1)Cc1ccccc1,C21H27N5O2,"InChI=1S/C21H27N5O2/c22-18(15-16-5-2-1-3-6-16)21(28)26-14-4-7-19(26)20(27)25-13-12-24-17-8-10-23-11-9-17/h1-3,5-6,8-11,18-19H,4,7,12-15,22H2,(H,23,24)(H,25,27)",381.47138,-5.727996553025,-0.24490246545000005,5.483094087575,4.900868825196814