mol_id,SMILES,formula,inchi,mass,HOMO(eV),LUMO(eV),GAP(eV),dipole_moment
000003165,OCC1OC(C(C1O)O)n1cnc2c1cc(Cl)c(c2)Cl,C12H12Cl2N2O4,"InChI=1S/C12H12Cl2N2O4/c13-5-1-7-8(2-6(5)14)16(4-15-7)12-11(19)10(18)9(3-17)20-12/h1-2,4,9-12,17-19H,3H2",319.14068,-6.484473057415,-1.3115887594100002,5.172884298005,3.611019072698869
000003166,CCN(CCOC(=O)C(c1ccccc1)C1CCCCC1)CC,C20H31NO2,"InChI=1S/C20H31NO2/c1-3-21(4-2)15-16-23-20(22)19(17-11-7-5-8-12-17)18-13-9-6-10-14-18/h5,7-8,11-12,18-19H,3-4,6,9-10,13-16H2,1-2H3",317.46564,-5.6164298743200005,-0.23401791142999961,5.382411962890001,1.524097272957996
000003167,O=C1CC2CCC3C(C2(CC1C)C)CCC1(C3CCC1O)C,C20H32O2,"InChI=1S/C20H32O2/c1-12-11-20(3)13(10-17(12)21)4-5-14-15-6-7-18(22)19(15,2)9-8-16(14)20/h12-16,18,22H,4-11H2,1-3H3",304.46688,-6.26406083851,-0.26667157349000004,5.99738926502,1.6898470063127018
000003168,Fc1ccc(cc1)C(=O)CCCN1CCC(=CC1)n1c(=O)[nH]c2c1cccc2,C22H22FN3O2,"InChI=1S/C22H22FN3O2/c23-17-9-7-16(8-10-17)21(27)6-3-13-25-14-11-18(12-15-25)26-20-5-2-1-4-19(20)24-22(26)28/h1-2,4-5,7-11H,3,6,12-15H2,(H,24,28)",379.4273832,-5.56200710422,-1.2734928203400004,4.28851428388,2.8444113086389247
000003169,OCC(CN1CCN(CC1)c1ccccc1)O,C13H20N2O2,"InChI=1S/C13H20N2O2/c16-11-13(17)10-14-6-8-15(9-7-14)12-4-2-1-3-5-12/h1-5,13,16-17H,6-11H2",236.3101,-5.053154203785001,0.11156667870499959,5.16472088249,2.422564506741977
000003170,CCC(=O)OC1CCC2C1(C)CCC1C2CCC2C1(C)CC(C)C(=O)C2,C23H36O3,"InChI=1S/C23H36O3/c1-5-21(25)26-20-9-8-17-16-7-6-15-12-19(24)14(2)13-23(15,4)18(16)10-11-22(17,20)3/h14-18,20H,5-13H2,1-4H3",360.53014,-6.24773400748,-0.25034474246000027,5.99738926502,1.8932209122616939
000003171,OC(=O)C(C(c1ccc(c(c1)O)O)O)N,C9H11NO5,"InChI=1S/C9H11NO5/c10-7(9(14)15)8(13)4-1-2-5(11)6(12)3-4/h1-3,7-8,11-13H,10H2,(H,14,15)",213.18734,-5.65452581339,-0.33470003611499966,5.319825777275001,2.755319098118038
000003173,[O-]C(=O)CN(C(=S)[S-])C.[Na+].[Na+],C4H5NNa2O2S2,"InChI=1S/C4H7NO2S2.2Na/c1-5(4(8)9)2-3(6)7;;/h2H2,1H3,(H,6,7)(H,8,9);;/q;2*+1/p-2",209.19754,-3.95653538627,-2.3973230229049998,1.5592123633650004,16.44122348532505
000003174,OC(=O)CN(C(=S)S)C,C4H7NO2S2,"InChI=1S/C4H7NO2S2/c1-5(4(8)9)2-3(6)7/h2H2,1H3,(H,6,7)(H,8,9)",165.23388,-6.3021567775800005,-1.4231554381149998,4.879001339465001,2.2530631431022967
000003176,COc1cc2cc([nH]c2c(c1OC)OC)C(=O)N1CC(c2c1cc(O)c1c2cc([nH]1)C(=O)OC)C,C25H25N3O7,"InChI=1S/C25H25N3O7/c1-11-10-28(16-9-17(29)21-13(19(11)16)8-15(27-21)25(31)35-5)24(30)14-6-12-7-18(32-2)22(33-3)23(34-4)20(12)26-14/h6-9,11,26-27,29H,10H2,1-5H3",479.4819,-4.9524720791,-1.1891375266850002,3.7633345524149995,2.565931305022993
000003179,OC(=O)C(c1ccc(cc1)Oc1ccn(c1)C(N)C)Cc1ccc2c(c1)cc(cc2)C(=N)N,C26H26N4O3,"InChI=1S/C26H26N4O3/c1-16(27)30-11-10-23(15-30)33-22-8-6-19(7-9-22)24(26(31)32)13-17-2-3-18-4-5-20(25(28)29)14-21(18)12-17/h2-12,14-16,24H,13,27H2,1H3,(H3,28,29)(H,31,32)",442.50964,-5.43683473299,-1.2136277732299998,4.223206959760001,4.453633080099999
000003180,CCCCOc1ccc(cc1)C(=O)CCN1CCCCC1,C18H27NO2,"InChI=1S/C18H27NO2/c1-2-3-15-21-17-9-7-16(8-10-17)18(20)11-14-19-12-5-4-6-13-19/h7-10H,2-6,11-15H2,1H3",289.41248,-5.6463623978749995,-0.9877732773150001,4.658589120559999,3.2563171853787525
000003181,O=C1CCC2(C(=C1)C=CC1C2CCC2(C1CCC2C(=O)C)C)C,C21H28O2,"InChI=1S/C21H28O2/c1-13(22)17-6-7-18-16-5-4-14-12-15(23)8-10-20(14,2)19(16)9-11-21(17,18)3/h4-5,12,16-19H,6-11H2,1-3H3",312.44582,-5.064038757805,-2.0680652638,2.9959734940050002,1.0843070779004442
000003182,OCC(Cn1cnc2c1c(=O)n(C)c(=O)n2C)O,C10H14N4O4,"InChI=1S/C10H14N4O4/c1-12-8-7(9(17)13(2)10(12)18)14(5-11-8)3-6(16)4-15/h5-6,15-16H,3-4H2,1-2H3",254.24256,-6.171542129340001,-1.3796172220349998,4.791924907305001,1.4917579149828566
000003185,Cc1cccc(n1)CCN1CCC(CC1)C(=O)c1ccc(cc1)NS(=O)(=O)C,C21H27N3O3S,"InChI=1S/C21H27N3O3S/c1-16-4-3-5-19(22-16)12-15-24-13-10-18(11-14-24)21(25)17-6-8-20(9-7-17)23-28(2,26)27/h3-9,18,23H,10-15H2,1-2H3",401.52238,-5.417786763455,-1.406828607085,4.01095815637,3.236758885882759
000003187,CC(CC(C(=O)NCCCCN=C(N)N)NC(=O)C(CC(=O)O)O)C,C15H29N5O5,"InChI=1S/C15H29N5O5/c1-9(2)7-10(20-14(25)11(21)8-12(22)23)13(24)18-5-3-4-6-19-15(16)17/h9-11,21H,3-8H2,1-2H3,(H,18,24)(H,20,25)(H,22,23)(H4,16,17,19)",359.42126,-6.0409274811,-0.2911618200349997,5.749765661065,4.047259917571517
000003188,CC(CC(C(=O)NCCC(C)C)NC(=O)C1OC1C(=O)O)C,C15H26N2O5,"InChI=1S/C15H26N2O5/c1-8(2)5-6-16-13(18)10(7-9(3)4)17-14(19)11-12(22-11)15(20)21/h8-12H,5-7H2,1-4H3,(H,16,18)(H,17,19)(H,20,21)",314.37734,-6.576991766585,-0.8680431830949997,5.708948583490001,3.0607024079439675
000003189,CCOC(=O)C1OC1C(=O)NC(C(=O)NCCC(C)C)CC(C)C,C17H30N2O5,"InChI=1S/C17H30N2O5/c1-6-23-17(22)14-13(24-14)16(21)19-12(9-11(4)5)15(20)18-8-7-10(2)3/h10-14H,6-9H2,1-5H3,(H,18,20)(H,19,21)",342.4305,-6.60148201313,-0.5850447785749999,6.016437234555,1.8670795524599373
000003191,O=C(c1ccc(cc1)C(C)(C)C)CCCN1CCC(CC1)OC(c1ccccc1)c1ccccc1,C32H39NO2,"InChI=1S/C32H39NO2/c1-32(2,3)28-18-16-25(17-19-28)30(34)15-10-22-33-23-20-29(21-24-33)35-31(26-11-6-4-7-12-26)27-13-8-5-9-14-27/h4-9,11-14,16-19,29,31H,10,15,20-24H2,1-3H3",469.65756,-5.559285965715,-1.140157033595,4.4191289321200005,1.7432326627229082
000003192,CCC(C(C(C(=O)C(C=C(CC(C1OC(=O)C1C)C)C)C)C)O)C,C20H34O4,"InChI=1S/C20H34O4/c1-8-12(3)17(21)15(6)18(22)13(4)9-11(2)10-14(5)19-16(7)20(23)24-19/h9,12-17,19,21H,8,10H2,1-7H3",338.48156,-6.272224254025001,-0.5959293325950004,5.67629492143,5.5661334502102084
000003193,CCC(C(C(C(=O)C(C=C(CC(C1OC(=O)C1CC)C)C)C)C)O)C,C21H36O4,"InChI=1S/C21H36O4/c1-8-13(4)18(22)16(7)19(23)14(5)10-12(3)11-15(6)20-17(9-2)21(24)25-20/h10,13-18,20,22H,8-9,11H2,1-7H3",352.50814,-6.14433074429,-0.4272187452849998,5.7171119990050006,4.873447124790522
000003195,CCC12CCCN3C2c2n(C(=O)C1)c1c(c2CC3)cccc1,C19H22N2O,"InChI=1S/C19H22N2O/c1-2-19-9-5-10-20-11-8-14-13-6-3-4-7-15(13)21(16(22)12-19)17(14)18(19)20/h3-4,6-7,18H,2,5,8-12H2,1H3",294.39078,-5.469488395050001,-0.7047748727950003,4.7647135222550006,4.076758050538443
000003196,OC(=O)C1(C)CCC2(C(C1)CCc1c2cc(c(c1)C(C)C)S(=O)(=O)O)C,C20H28O5S,"InChI=1S/C20H28O5S/c1-12(2)15-9-13-5-6-14-11-19(3,18(21)22)7-8-20(14,4)16(13)10-17(15)26(23,24)25/h9-10,12,14H,5-8,11H2,1-4H3,(H,21,22)(H,23,24,25)",380.49832,-6.75930804642,-1.0503594629300004,5.70894858349,4.358301973857479
000003198,Clc1ccc(cc1)COC(c1ccc(cc1Cl)Cl)Cn1cncc1,C18H15Cl3N2O,"InChI=1S/C18H15Cl3N2O/c19-14-3-1-13(2-4-14)11-24-18(10-23-8-7-22-12-23)16-6-5-15(20)9-17(16)21/h1-9,12,18H,10-11H2",381.6835,-6.000110403525,-0.9578407537600002,5.042269649765,4.720264685286833
000003200,O=C1CC(=NC1c1ccccc1)C,C11H11NO,"InChI=1S/C11H11NO/c1-8-7-10(13)11(12-8)9-5-3-2-4-6-9/h2-6,11H,7H2,1H3",173.21114,-6.24229173047,-0.8707643216000003,5.37152740887,2.55132608056242
000003201,OCC1C(O)COC1n1cc(CC)c(=O)[nH]c1=O,C11H16N2O5,"InChI=1S/C11H16N2O5/c1-2-6-3-13(11(17)12-9(6)16)10-7(4-14)8(15)5-18-10/h3,7-8,10,14-15H,2,4-5H2,1H3,(H,12,16,17)",256.25514,-6.17698440635,-0.97416758479,5.20281682156,4.607402392395199
000003203,FC(C1(C#CC2CC2)OC(=O)Nc2c1cc(Cl)cc2)(F)F,C14H9ClF3NO2,"InChI=1S/C14H9ClF3NO2/c15-9-3-4-11-10(7-9)13(14(16,17)18,21-12(20)19-11)6-5-8-1-2-8/h3-4,7-8H,1-2H2,(H,19,20)",315.6749696,-6.33481043964,-1.1673684186450002,5.167442020995,3.6012129835628994
000003205,NC(C(=O)NCCOCCOCCNC(=O)c1ccc(cc1)S(=O)(=O)N)Cc1ccccc1,C22H30N4O6S,"InChI=1S/C22H30N4O6S/c23-20(16-17-4-2-1-3-5-17)22(28)26-11-13-32-15-14-31-12-10-25-21(27)18-6-8-19(9-7-18)33(24,29)30/h1-9,20H,10-16,23H2,(H,25,27)(H,26,28)(H2,24,29,30)",478.5618,-6.147051882795,-1.4340399921350002,4.71301189066,2.198134164440833
000003206,CCCCCCC(n1cnc2c1ncnc2N)C(O)C,C14H23N5O,"InChI=1S/C14H23N5O/c1-3-4-5-6-7-11(10(2)20)19-9-18-12-13(15)16-8-17-14(12)19/h8-11,20H,3-7H2,1-2H3,(H2,15,16,17)",277.36532,-5.945687633425,-0.7537553658849996,5.19193226754,3.093344362818663
000003207,CCCCCCCCCCCC=CCC=CCCCC(=O)O,C20H36O2,"InChI=1S/C20H36O2/c1-2-3-4-5-6-7-8-9-10-11-12-13-14-15-16-17-18-19-20(21)22/h12-13,15-16H,2-11,14,17-19H2,1H3,(H,21,22)",308.49864,-6.4028389022650005,0.14966261777500023,6.552501520040001,4.645053528355944
000003208,CCCCCC=CCC=CCCCCCCCCCC(=O)O,C20H36O2,"InChI=1S/C20H36O2/c1-2-3-4-5-6-7-8-9-10-11-12-13-14-15-16-17-18-19-20(21)22/h6-7,9-10H,2-5,8,11-19H2,1H3,(H,21,22)",308.49864,-6.1797055448550005,0.23673904993500017,6.416444594790001,4.257849634816147
000003209,CCC=CCC=CCC=CCC=CCC=CCCCC(=O)O,C20H30O2,"InChI=1S/C20H30O2/c1-2-3-4-5-6-7-8-9-10-11-12-13-14-15-16-17-18-19-20(21)22/h3-4,6-7,9-10,12-13,15-16H,2,5,8,11,14,17-19H2,1H3,(H,21,22)",302.451,-6.212359206915,0.059865047109999736,6.272224254025,4.525240312499326
000003210,CCC=CCC=CCC=CCCCCCCCCCC(=O)O,C20H34O2,"InChI=1S/C20H34O2/c1-2-3-4-5-6-7-8-9-10-11-12-13-14-15-16-17-18-19-20(21)22/h3-4,6-7,9-10H,2,5,8,11-19H2,1H3,(H,21,22)",306.48276,-6.155215298310001,0.23401791142999961,6.38923320974,4.206385393991141
000003213,Cc1c2cnccc2c(c2c1c1ccccc1[nH]2)C,C17H14N2,"InChI=1S/C17H14N2/c1-10-14-9-18-8-7-12(14)11(2)17-16(10)13-5-3-4-6-15(13)19-17/h3-9,19H,1-2H3",246.30646,-5.243633899135,-1.385059499045,3.85857440009,4.056705739639122
000003218,CCCCCCCCCCCC1=C(O)C(=O)C=C(C1=O)O,C17H26O4,"InChI=1S/C17H26O4/c1-2-3-4-5-6-7-8-9-10-11-13-16(20)14(18)12-15(19)17(13)21/h12,18,21H,2-11H2,1H3",294.38594,-6.53617468901,-2.8000515216450004,3.7361231673649997,1.3050017428421312
000003219,CCOCCn1c(nc2c1cccc2)N1CCCN(CC1)C,C17H26N4O,"InChI=1S/C17H26N4O/c1-3-22-14-13-21-16-8-5-4-7-15(16)18-17(21)20-10-6-9-19(2)11-12-20/h4-5,7-8H,3,6,9-14H2,1-2H3",302.41454,-5.39329651691,-0.2204122189050004,5.172884298004999,3.194929934409204
000003220,Cc1cc(O)c2c(c1)C(=O)c1c(C2=O)c(O)cc(c1)O,C15H10O5,"InChI=1S/C15H10O5/c1-6-2-8-12(10(17)3-6)15(20)13-9(14(8)19)4-7(16)5-11(13)18/h2-5,16-18H,1H3",270.2369,-6.038206342595,-2.250381543635,3.78782479896,2.0494366774814
000003221,CCOc1c(cnn(c1=O)C)N1CCOCC1,C11H17N3O3,"InChI=1S/C11H17N3O3/c1-3-17-10-9(8-12-13(2)11(10)15)14-4-6-16-7-5-14/h8H,3-7H2,1-2H3",239.27098,-5.5946607662800005,-1.0802919864850002,4.514368779795,1.6682826972326963
000003222,CCOC(=O)C(NC(C(=O)N1CCCC1C(=O)O)C)CCc1ccccc1,C20H28N2O5,"InChI=1S/C20H28N2O5/c1-3-27-20(26)16(12-11-15-8-5-4-6-9-15)21-14(2)18(23)22-13-7-10-17(22)19(24)25/h4-6,8-9,14,16-17,21H,3,7,10-13H2,1-2H3,(H,24,25)",376.44672,-6.40011776376,-0.3782382521949996,6.021879511565,7.5927340766322775
000003224,O=S1OCC2C(CO1)C1(C(C2(Cl)C(=C1Cl)Cl)(Cl)Cl)Cl,C9H6Cl6O3S,"InChI=1S/C9H6Cl6O3S/c10-5-6(11)8(13)4-2-18-19(16)17-1-3(4)7(5,12)9(8,14)15/h3-4H,1-2H2",406.92514,-7.202853622735,-1.3741749450249996,5.82867867771,2.0836888977700103
000003225,OC(=O)C1C2CCC(C1C(=O)O)O2,C8H10O5,"InChI=1S/C8H10O5/c9-7(10)5-3-1-2-4(13-3)6(5)8(11)12/h3-6H,1-2H2,(H,9,10)(H,11,12)",186.162,-7.496736581275001,-0.30748865106500034,7.1892479302100005,6.680687515920724
000003226,FC(OC(C(Cl)F)(F)F)F,C3H2ClF5O,"InChI=1S/C3H2ClF5O/c4-1(5)3(8,9)10-2(6)7/h1-2H",184.492396,-8.922613157895,-0.0489804930899993,8.873632664805001,0.9511481910638321
000003229,CCn1cc(C(=O)O)c(=O)c2c1nc(N1CCNCC1)c(c2)F,C15H17FN4O3,"InChI=1S/C15H17FN4O3/c1-2-19-8-10(15(22)23)12(21)9-7-11(16)14(18-13(9)19)20-5-3-17-4-6-20/h7-8,17H,2-6H2,1H3,(H,22,23)",320.3188832,-6.125282774755,-1.8884701224700002,4.236812652285,9.446526255473913
000003230,O=C1C=C2C3CC(C)(CCC3(C)CCC2(C2(C1C1(C)CCC(C(C1CC2)(C)C)O)C)C)C(=O)O,C30H46O4,"InChI=1S/C30H46O4/c1-25(2)21-8-11-30(7)23(28(21,5)10-9-22(25)32)20(31)16-18-19-17-27(4,24(33)34)13-12-26(19,3)14-15-29(18,30)6/h16,19,21-23,32H,8-15,17H2,1-7H3,(H,33,34)",470.68384,-6.087186835685,-0.9714464462850003,5.1157403894,6.595699006027792
000003231,COC(=O)CCC=C=CCC1C(=O)CC(C1C=CC(COc1ccccc1)O)O,C23H28O6,"InChI=1S/C23H28O6/c1-28-23(27)12-8-3-2-7-11-19-20(22(26)15-21(19)25)14-13-17(24)16-29-18-9-5-4-6-10-18/h3-7,9-10,13-14,17,19-20,22,24,26H,8,11-12,15-16H2,1H3",400.46482,-5.885822586315,-0.5796025015649997,5.3062200847500005,4.0550445451515085
000003232,C=C1C2CCC3C(C1=O)(C2)CCC1C3(C)CCCC1(C)C(=O)O,C20H28O3,"InChI=1S/C20H28O3/c1-12-13-5-6-15-18(2)8-4-9-19(3,17(22)23)14(18)7-10-20(15,11-13)16(12)21/h13-15H,1,4-11H2,2-3H3,(H,22,23)",316.43452,-6.342973855155,-1.3687326680150003,4.97424118714,2.2714640375075277
000003233,C=C1CC23CCC4C(C3CC1CC2=O)(C)CC(=O)C(C4(C)C)O,C20H28O3,"InChI=1S/C20H28O3/c1-11-9-20-6-5-14-18(2,3)17(23)13(21)10-19(14,4)15(20)7-12(11)8-16(20)22/h12,14-15,17,23H,1,5-10H2,2-4H3",316.43452,-6.451819395355001,-0.6884480417649996,5.763371353590001,3.7679124463576645
000003235,CC(=Cc1ccccc1)C=C1SC(=S)N(C1=O)CC(=O)O,C15H13NO3S2,"InChI=1S/C15H13NO3S2/c1-10(7-11-5-3-2-4-6-11)8-12-14(19)16(9-13(17)18)15(20)21-12/h2-8H,9H2,1H3,(H,17,18)",319.39862,-6.38379093273,-2.914339338855,3.469451593875,7.45540918794522
000003236,CCc1ccc(cc1)C(=O)C(CN1CCCCC1)C,C17H25NO,"InChI=1S/C17H25NO/c1-3-15-7-9-16(10-8-15)17(19)14(2)13-18-11-5-4-6-12-18/h7-10,14H,3-6,11-13H2,1-2H3",259.3865,-5.591939627775,-0.99593669283,4.596002934945,2.2827681832095874
000003237,CC(CC(C(C(=O)NC(C(=O)NC(C(=O)NC(C(=O)O)CC(=O)O)C(C)C)C(C)C)O)N)C,C21H38N4O8,"InChI=1S/C21H38N4O8/c1-9(2)7-12(22)17(28)20(31)25-16(11(5)6)19(30)24-15(10(3)4)18(29)23-13(21(32)33)8-14(26)27/h9-13,15-17,28H,7-8,22H2,1-6H3,(H,23,29)(H,24,30)(H,25,31)(H,26,27)(H,32,33)",474.54842,-6.027321788575001,-1.0041001083449999,5.023221680230001,2.627674208806145
000003238,OC(C(=O)NC(C(=O)O)CC(C)C)C(Cc1ccccc1)N,C16H24N2O4,"InChI=1S/C16H24N2O4/c1-10(2)8-13(16(21)22)18-15(20)14(19)12(17)9-11-6-4-3-5-7-11/h3-7,10,12-14,19H,8-9,17H2,1-2H3,(H,18,20)(H,21,22)",308.37276,-6.6559047832300005,-0.3183732050849999,6.337531578145001,6.12495466386446
000003239,OC(C(C1CCC2C1(C)CCC1C2COC(=O)C2C1(C)CC(O)C(C2)O)C)C(C(C(C)C)C)O,C28H48O6,"InChI=1S/C28H48O6/c1-14(2)15(3)24(31)25(32)16(4)18-7-8-19-17-13-34-26(33)21-11-22(29)23(30)12-28(21,6)20(17)9-10-27(18,19)5/h14-25,29-32H,7-13H2,1-6H3",480.67712,-6.63413567519,-0.16871058730999966,6.46542508788,5.380952717581246
000003240,CC(CCCC(C1CCC2C1(C)CCC1C2CCC2C1(C)CCC(C2)O)C)C,C27H48O,"InChI=1S/C27H48O/c1-18(2)7-6-8-19(3)23-11-12-24-22-10-9-20-17-21(28)13-15-26(20,4)25(22)14-16-27(23,24)5/h18-25,28H,6-17H2,1-5H3",388.66942,-6.8082885395099995,1.72520181217,8.53349035168,1.48579964343649
000003241,NC1=NCC2N1c1ccccc1Cc1c2cccc1,C16H15N3,"InChI=1S/C16H15N3/c17-16-18-10-15-13-7-3-1-5-11(13)9-12-6-2-4-8-14(12)19(15)16/h1-8,15H,9-10H2,(H2,17,18)",249.3104,-5.2790086997,-0.3156520665800002,4.96335663312,1.8140539921741579
000003242,COc1cc(C)nc(n1)n1nc(cc1OC)C,C11H14N4O2,"InChI=1S/C11H14N4O2/c1-7-5-9(16-3)13-11(12-7)15-10(17-4)6-8(2)14-15/h5-6H,1-4H3",234.25446,-5.6817371984400005,-0.8272261055200003,4.85451109292,2.23813102786365
000003243,OC1CCC2C1(C)CCC1C2CCC2C1(C)CC1SC1C2,C19H30OS,"InChI=1S/C19H30OS/c1-18-8-7-14-12(13(18)5-6-17(18)20)4-3-11-9-15-16(21-15)10-19(11,14)2/h11-17,20H,3-10H2,1-2H3",306.5059,-5.8831014478100006,0.21769108039999985,6.10079252821,3.3700071441017747
000003245,CCOC(c1ccccc1)CN1CCN(CC1)CC(C(=O)c1ccccc1)C,C24H32N2O2,"InChI=1S/C24H32N2O2/c1-3-28-23(21-10-6-4-7-11-21)19-26-16-14-25(15-17-26)18-20(2)24(27)22-12-8-5-9-13-22/h4-13,20,23H,3,14-19H2,1-2H3",380.52308,-4.949750940595,-1.3061464824,3.643604458195,1.7084589461201578
000003246,CN1CCC2(CC(C1)Cc1c2cc(cc1)O)C,C15H21NO,"InChI=1S/C15H21NO/c1-15-5-6-16(2)10-11(9-15)7-12-3-4-13(17)8-14(12)15/h3-4,8,11,17H,5-7,9-10H2,1-2H3",231.33334,-5.559285965715,0.005442277010000218,5.564728242725001,1.1565754752176791
000003247,Oc1ccc2c(c1)CC=C1C2CCC2(C1CCC2=O)C,C18H20O2,"InChI=1S/C18H20O2/c1-18-9-8-14-13-5-3-12(19)10-11(13)2-4-15(14)16(18)6-7-17(18)20/h3-5,10,14,16,19H,2,6-9H2,1H3",268.3502,-5.6817371984400005,-0.4435455763149996,5.238191622125001,2.422815617182207
000003248,COC(=O)C=Cc1cc(O)ccc1O,C10H10O4,"InChI=1S/C10H10O4/c1-14-10(13)5-2-7-6-8(11)3-4-9(7)12/h2-6,11-12H,1H3",194.184,-5.52391116515,-1.7088749811400001,3.81503618401,1.867464963859831
000003249,OC1CCC(=C)C(=CC=C2CCCC3(C2CCC3C(C=CC(C(C)C)C)C)C)C1,C28H44O,"InChI=1S/C28H44O/c1-19(2)20(3)9-10-22(5)26-15-16-27-23(8-7-17-28(26,27)6)12-13-24-18-25(29)14-11-21(24)4/h9-10,12-13,19-20,22,25-27,29H,4,7-8,11,14-18H2,1-3,5-6H3",396.64836,-5.330710331295,-0.5959293325950004,4.7347809987,1.3133271227230479
000003250,OCC(NC(=O)C1CN(C)C2C(=C1)c1cccc3c1c(C2)c[nH]3)C,C19H23N3O2,"InChI=1S/C19H23N3O2/c1-11(10-23)21-19(24)13-6-15-14-4-3-5-16-18(14)12(8-20-16)7-17(15)22(2)9-13/h3-6,8,11,13,17,20,23H,7,9-10H2,1-2H3,(H,21,24)",325.40482,-4.5715126884,-1.7224806736649998,2.8490320147350006,2.1280417093642687
000003260,OCC1OC(C(C1O)O)n1cnc2c1ncn1c2ncc1,C12H13N5O4,"InChI=1S/C12H13N5O4/c18-3-6-8(19)9(20)12(21-6)17-5-14-7-10-13-1-2-16(10)4-15-11(7)17/h1-2,4-6,8-9,12,18-20H,3H2",291.26272,-5.962014464455,-1.57281805589,4.389196408565,3.0102121874118772
000003261,Clc1ccc2c(c1)C(=NCc1n2cnn1)c1ccccc1,C16H11ClN4,"InChI=1S/C16H11ClN4/c17-12-6-7-14-13(8-12)16(11-4-2-1-3-5-11)18-9-15-20-19-10-21(14)15/h1-8,10H,9H2",294.73834,-6.55794379705,-1.918402646025,4.639541151025,5.382797732990809
000003262,O=C(c1ccccc1)Oc1ccc2c(c1)CCC1C2CCC2(C1CCC2O)C,C25H28O3,"InChI=1S/C25H28O3/c1-25-14-13-20-19-10-8-18(28-24(27)16-5-3-2-4-6-16)15-17(19)7-9-21(20)22(25)11-12-23(25)26/h2-6,8,10,15,20-23,26H,7,9,11-14H2,1H3",376.48802,-5.956572187445,-1.4476456846600003,4.508926502785,2.0647106255388428
000003263,O=C(OC1CCC2C1(C)CCC1C2CCc2c1ccc(c2)O)CCC1CCCC1,C26H36O3,"InChI=1S/C26H36O3/c1-26-15-14-21-20-10-8-19(27)16-18(20)7-9-22(21)23(26)11-12-24(26)29-25(28)13-6-17-4-2-3-5-17/h8,10,16-17,21-24,27H,2-7,9,11-15H2,1H3",396.56224,-5.602824181795,0.09523984767499982,5.69806402947,0.8464153363627104
000003264,CC(=O)Oc1ccc2c(c1)CCC1C2CCC2(C1CCC2OC(=O)C)C,C22H28O4,"InChI=1S/C22H28O4/c1-13(23)25-16-5-7-17-15(12-16)4-6-19-18(17)10-11-22(3)20(19)8-9-21(22)26-14(2)24/h5,7,12,18-21H,4,6,8-11H2,1-3H3",356.45532,-5.918476248375,-0.2966040970449999,5.62187215133,2.09088004260144
000003265,CCC(=O)Oc1ccc2c(c1)CCC1C2CCC2(C1CCC2OC(=O)CC)C,C24H32O4,"InChI=1S/C24H32O4/c1-4-22(25)27-16-7-9-17-15(14-16)6-8-19-18(17)12-13-24(3)20(19)10-11-21(24)28-23(26)5-2/h7,9,14,18-21H,4-6,8,10-13H2,1-3H3",384.50848,-5.921197386879999,-0.2693927119949997,5.651804674885,1.9372389108403745
000003266,CCC(=O)OC1CCC2C1(C)CCC1C2CCc2c1ccc(c2)O,C21H28O3,"InChI=1S/C21H28O3/c1-3-20(23)24-19-9-8-18-17-6-4-13-12-14(22)5-7-15(13)16(17)10-11-21(18,19)2/h5,7,12,16-19,22H,3-4,6,8-11H2,1-2H3",328.44522,-5.54568027319,0.07891301664500006,5.624593289835,2.0559583198350593
000003267,CCCCC(=O)OC1CCC2C1(C)CCC1C2CCc2c1ccc(c2)O,C23H32O3,"InChI=1S/C23H32O3/c1-3-4-5-22(25)26-21-11-10-20-19-8-6-15-14-16(24)7-9-17(15)18(19)12-13-23(20,21)2/h7,9,14,18-21,24H,3-6,8,10-13H2,1-2H3",356.49838,-5.55656482721,0.06530732411999995,5.62187215133,2.1524740587677242
000003269,Oc1ccc2c(c1)CCC1C2CCC2(C1CC(C2O)O)C,C18H24O3,"InChI=1S/C18H24O3/c1-18-7-6-13-12-5-3-11(19)8-10(12)2-4-14(13)15(18)9-16(20)17(18)21/h3,5,8,13-17,19-21H,2,4,6-7,9H2,1H3",288.38136,-5.755207938075,-0.07347073963499984,5.6817371984400005,2.538044328766738
000003270,CC(=O)OC1CC2C(C1OC(=O)C)(C)CCC1C2CCc2c1ccc(c2)OC(=O)c1ccccc1,C29H32O6,"InChI=1S/C29H32O6/c1-17(30)33-26-16-25-24-11-9-20-15-21(35-28(32)19-7-5-4-6-8-19)10-12-22(20)23(24)13-14-29(25,3)27(26)34-18(2)31/h4-8,10,12,15,23-27H,9,11,13-14,16H2,1-3H3",476.56078,-5.97562015698,-1.450366823165,4.525253333815,1.4543584135050756
000003271,OC1CC2C(C1O)(C)CCC1C2CCc2c1ccc(c2)OCc1ccccc1,C25H30O3,"InChI=1S/C25H30O3/c1-25-12-11-20-19-10-8-18(28-15-16-5-3-2-4-6-16)13-17(19)7-9-21(20)22(25)14-23(26)24(25)27/h2-6,8,10,13,20-24,26-27H,7,9,11-12,14-15H2,1H3",378.5039,-5.73615996854,-0.16054717179499978,5.575612796745,2.725960395830064
000003272,CCC(=O)Oc1ccc2c(c1)CCC1C2CCC2(C1CC(C2OC(=O)CC)OC(=O)CC)C,C27H36O6,"InChI=1S/C27H36O6/c1-5-23(28)31-17-9-11-18-16(14-17)8-10-20-19(18)12-13-27(4)21(20)15-22(32-24(29)6-2)26(27)33-25(30)7-3/h9,11,14,19-22,26H,5-8,10,12-13,15H2,1-4H3",456.57114,-5.94296649492,-0.3183732050849999,5.624593289835,1.897612809154175
000003273,CC(=O)Oc1ccc2c(c1)CCC1C2CCC2(C1CCC2=O)C,C20H24O3,"InChI=1S/C20H24O3/c1-12(21)23-14-4-6-15-13(11-14)3-5-17-16(15)9-10-20(2)18(17)7-8-19(20)22/h4,6,11,16-18H,3,5,7-10H2,1-2H3",312.40276,-6.054533173625,-0.4816415153850002,5.57289165824,2.0485630365858896