mol_id,SMILES,formula,inchi,mass,HOMO(eV),LUMO(eV),GAP(eV),dipole_moment
000000894,OC1C(OC(C1O)COP(=O)(O)O)Nc1ccccc1C(=O)O,C12H16NO9P,"InChI=1S/C12H16NO9P/c14-9-8(5-21-23(18,19)20)22-11(10(9)15)13-7-4-2-1-3-6(7)12(16)17/h1-4,8-11,13-15H,5H2,(H,16,17)(H2,18,19,20)",349.230501,-5.77969818462,-1.3524058369850005,4.4272923476349995,5.543618000450158
000000895,NCCCCCC(=O)NCCCCCC(=O)O,C12H24N2O3,"InChI=1S/C12H24N2O3/c13-9-5-1-3-7-11(15)14-10-6-2-4-8-12(16)17/h1-10,13H2,(H,14,15)(H,16,17)",244.33056,-6.19875351439,0.3238154820950001,6.522568996485,4.292930639169238
000000896,COc1ccc2c(c1)c(CCNC(=O)C)c[nH]2,C13H16N2O2,"InChI=1S/C13H16N2O2/c1-9(16)14-6-5-10-8-15-13-4-3-11(17-2)7-12(10)13/h3-4,7-8,15H,5-6H2,1-2H3,(H,14,16)",232.27834,-5.074923311825,-0.2068065263800003,4.868116785444999,2.766462456743991
000000897,OCC1OC(N)C(C(C1O)O)NC(=O)C,C8H16N2O5,"InChI=1S/C8H16N2O5/c1-3(12)10-5-7(14)6(13)4(2-11)15-8(5)9/h4-8,11,13-14H,2,9H2,1H3,(H,10,12)",220.22304,-6.62325112117,0.1523837562799999,6.77563487745,3.5537964644930073
000000898,CC(=O)NC1C(O)OC(C(C1O)O)COP(=O)(O)O,C8H16NO9P,"InChI=1S/C8H16NO9P/c1-3(10)9-5-7(12)6(11)4(18-8(5)13)2-17-19(14,15)16/h4-8,11-13H,2H2,1H3,(H,9,10)(H2,14,15,16)",301.187701,-7.197411345725,0.03265366206000042,7.230065007785001,5.296656789164086
000000899,OCC1OC(O)C(C(C1O)O)NC(=O)C,C8H15NO6,"InChI=1S/C8H15NO6/c1-3(11)9-5-7(13)6(12)4(2-10)15-8(5)14/h4-8,10,12-14H,2H2,1H3,(H,9,11)",221.2078,-6.72121210735,0.17687400282500043,6.898086110175001,4.072196038681586
000000900,OCC1OC(OP(=O)(O)O)C(C(C1O)O)NC(=O)C,C8H16NO9P,"InChI=1S/C8H16NO9P/c1-3(11)9-5-7(13)6(12)4(2-10)17-8(5)18-19(14,15)16/h4-8,10,12-13H,2H2,1H3,(H,9,11)(H2,14,15,16)",301.187701,-6.81917309353,0.33197889761,7.15115199114,6.042124930710386
000000901,CC(=O)NC(C(=O)O)CCC(=O)OP(=O)(O)O,C7H12NO8P,"InChI=1S/C7H12NO8P/c1-4(9)8-5(7(11)12)2-3-6(10)16-17(13,14)15/h5H,2-3H2,1H3,(H,8,9)(H,11,12)(H2,13,14,15)",269.145841,-7.265439808350001,-0.90886026067,6.356579547680001,5.578913709440755
000000902,CC(=O)NCCC(C(=O)O)N,C6H12N2O3,"InChI=1S/C6H12N2O3/c1-4(9)8-3-2-5(7)6(10)11/h5H,2-3,7H2,1H3,(H,8,9)(H,10,11)",160.17108,-6.6695104757550006,-0.01904796953500032,6.65046250622,2.226958822369421
000000903,CC(=O)NCCc1c[nH]c2c1cc(O)cc2,C12H14N2O2,"InChI=1S/C12H14N2O2/c1-8(15)13-5-4-9-7-14-12-3-2-10(16)6-11(9)12/h2-3,6-7,14,16H,4-5H2,1H3,(H,13,15)",218.25176,-5.2354704836199994,-0.2068065263800003,5.028663957239999,1.7828710277754247
000000904,CC(=O)Nc1ccccc1,C8H9NO,"InChI=1S/C8H9NO/c1-7(10)9-8-5-3-2-4-6-8/h2-6H,1H3,(H,9,10)",135.16316,-5.842284370235,-0.21224880338999963,5.630035566845001,3.315315905791332
000000905,O=CCCC(C(=O)O)NC(=O)C,C7H11NO4,"InChI=1S/C7H11NO4/c1-5(10)8-6(7(11)12)3-2-4-9/h4,6H,2-3H2,1H3,(H,8,10)(H,11,12)",173.16654,-7.028700758415,-0.7374285348549998,6.29127222356,3.6121905176890934
000000906,OCC(C(C1OC(O)(CC(C1NC(=O)C)O)C(=O)O)O)O,C11H19NO9,"InChI=1S/C11H19NO9/c1-4(14)12-7-5(15)2-11(20,10(18)19)21-9(7)8(17)6(16)3-13/h5-9,13,15-17,20H,2-3H2,1H3,(H,12,14)(H,18,19)",309.26986,-6.674952752765,-0.05170163159499985,6.62325112117,1.610706012627382
000000907,CC(=O)NC(C(=O)O)CCCN,C7H14N2O3,"InChI=1S/C7H14N2O3/c1-5(10)9-6(7(11)12)3-2-4-8/h6H,2-4,8H2,1H3,(H,9,10)(H,11,12)",174.19766,-6.261339700005,-0.2204122189050004,6.0409274811,5.0144911945678
000000910,O=CNc1ccccc1C(=O)CC(C(=O)O)N,C11H12N2O4,"InChI=1S/C11H12N2O4/c12-8(11(16)17)5-10(15)7-3-1-2-4-9(7)13-6-14/h1-4,6,8H,5,12H2,(H,13,14)(H,16,17)",236.22398,-6.57971290509,-2.4054864384200005,4.1742264666699995,6.963945045433515
000000911,CSCCC(C(=O)O)NC=O,C6H11NO3S,"InChI=1S/C6H11NO3S/c1-11-3-2-5(6(9)10)7-4-8/h4-5H,2-3H2,1H3,(H,7,8)(H,9,10)",177.22144,-6.087186835685,-0.42449760678000015,5.662689228905,1.3432393438259618
000000912,CNCCc1cnc[nH]1,C6H11N3,"InChI=1S/C6H11N3/c1-7-3-2-6-4-8-5-9-6/h4-5,7H,2-3H2,1H3,(H,8,9)",125.17164,-5.74704452256,0.6476309641900002,6.394675486750001,4.412531114452226
000000913,CNCC(c1ccccc1)O,C9H13NO,"InChI=1S/C9H13NO/c1-10-7-9(11)8-5-3-2-4-6-8/h2-6,9-11H,7H2,1H3",151.20562,-6.024600650070001,-0.20952766488499996,5.815072985185001,2.506501671016997
000000914,CNC(C(=O)O)Cc1c[nH]c2c1cccc2,C12H14N2O2,"InChI=1S/C12H14N2O2/c1-13-11(12(15)16)6-8-7-14-10-5-3-2-4-9(8)10/h2-5,7,11,13-14H,6H2,1H3,(H,15,16)",218.25176,-5.34431602382,-0.17415286431999988,5.1701631595,2.531701106629493
000000915,O=C(NC(C(=O)O)CCCC(=O)C(=O)O)CCC(=O)O,C11H15NO8,"InChI=1S/C11H15NO8/c13-7(11(19)20)3-1-2-6(10(17)18)12-8(14)4-5-9(15)16/h6H,1-5H2,(H,12,14)(H,15,16)(H,17,18)(H,19,20)",289.2387,-6.824615370540001,-2.310246590745,4.514368779795001,8.014647432668639
000000916,NCCCNCCCCNCCCNC(=O)C,C12H28N4O,"InChI=1S/C12H28N4O/c1-12(17)16-11-5-10-15-8-3-2-7-14-9-4-6-13/h14-15H,2-11,13H2,1H3,(H,16,17)",244.37692,-5.9348030794049995,0.8653220445900001,6.800125123995,3.347468315842586
000000917,CN1CNc2c(C1N)[nH]cn2,C6H11N5,"InChI=1S/C6H11N5/c1-11-3-10-6-4(5(11)7)8-2-9-6/h2,5,10H,3,7H2,1H3,(H,8,9)",153.18504,-4.80008832282,0.6122561636250001,5.412344486445,3.327728962996536
000000918,OC(=O)CCC(=O)NC(C(=O)O)CCC(=O)O,C9H13NO7,"InChI=1S/C9H13NO7/c11-6(2-4-8(14)15)10-5(9(16)17)1-3-7(12)13/h5H,1-4H2,(H,10,11)(H,12,13)(H,14,15)(H,16,17)",247.20202,-6.75386576941,-0.7129382883100002,6.0409274811,5.303453592372521
000000919,OCCCC(C(=O)O)NC(=O)CCC(=O)O,C9H15NO6,"InChI=1S/C9H15NO6/c11-5-1-2-6(9(15)16)10-7(12)3-4-8(13)14/h6,11H,1-5H2,(H,10,12)(H,13,14)(H,15,16)",233.2185,-7.03686417393,-0.8272261055200003,6.209638068409999,7.8554220185052435
000000920,NCCCC(C(=O)O)NC(=O)CCC(=O)O,C9H16N2O5,"InChI=1S/C9H16N2O5/c10-5-1-2-6(9(15)16)11-7(12)3-4-8(13)14/h6H,1-5,10H2,(H,11,12)(H,13,14)(H,15,16)",232.23374,-6.587876320605,-0.95239847675,5.635477843855,8.358922828493693
000000921,NC1CCNC(=O)N1C,C5H11N3O,"InChI=1S/C5H11N3O/c1-8-4(6)2-3-7-5(8)9/h4H,2-3,6H2,1H3,(H,7,9)",129.16034,-6.23684945346,1.515674147285,7.752523600745,2.920260796090822
000000922,CNC(=O)CCC(C(=O)O)N,C6H12N2O3,"InChI=1S/C6H12N2O3/c1-8-5(9)3-2-4(7)6(10)11/h4H,2-3,7H2,1H3,(H,8,9)(H,10,11)",160.17108,-6.767471461935,-0.16326831030000033,6.604203151635,0.526085984123318
000000931,c1ccc2c(c1)cccc2,C10H8,InChI=1S/C10H8/c1-2-6-10-8-4-3-7-9(10)5-1/h1-8H,128.17052,-5.8259575392050005,-0.9170236761849999,4.908933863020001,1.2884098726725126e-05
000000932,Oc1ccc(cc1)C1CC(=O)c2c(O1)cc(cc2O)O,C15H12O5,"InChI=1S/C15H12O5/c16-9-3-1-8(2-4-9)13-7-12(19)15-11(18)5-10(17)6-14(15)20-13/h1-6,13,16-18H,7H2",272.25278,-5.842284370235,-0.9143025376800002,4.927981832555,4.314227757984156
000000936,NC(=O)c1cccnc1,C6H6N2O,"InChI=1S/C6H6N2O/c7-6(9)5-2-1-3-8-4-5/h1-4H,(H2,7,9)",122.12464,-6.816451955025,-1.205464357715,5.61098759731,2.5319022696717584
000000938,OC(=O)c1cccnc1,C6H5NO2,"InChI=1S/C6H5NO2/c8-6(9)5-2-1-3-7-4-5/h1-4H,(H,8,9)",123.1094,-7.317141439944999,-1.5918660254250003,5.725275414519999,3.604565848435842
000000942,CN1CCCC1c1cccnc1,C10H14N2,"InChI=1S/C10H14N2/c1-12-7-3-5-10(12)9-4-2-6-11-8-9/h2,4,6,8,10H,3,5,7H2,1H3",162.23156,-5.91575510987,-0.37551711368999996,5.54023799618,3.039650880267009
000000944,[O-][N+](=O)O,HNO3,"InChI=1S/HNO3/c2-1(3)4/h(H,2,3,4)",63.01284,-8.94710340444,-1.9374506155599995,7.00965278888,2.355095092041508
000000945,N=O,HNO,InChI=1S/HNO/c1-2/h1H,31.01404,-6.397396625255,-2.71569622799,3.681700397265,1.6818914764365744
000000947,N#N,N2,InChI=1S/N2/c1-2,28.0134,-11.60293458532,-0.8054569974800003,10.79747758784,2e-06
000000948,[O-][N+]#N,N2O,InChI=1S/N2O/c1-2-3,44.0128,-9.309014825605,-0.3918439447199997,8.917170880885001,0.053792057350504824
000000949,CN(c1ccccc1)C,C8H11N,"InChI=1S/C8H11N/c1-9(2)8-6-4-3-5-7-8/h3-7H,1-2H3",121.17964,-5.216422514085,0.25034474246000027,5.466767256545,1.4788979975272127
000000950,[O-][N+](c1ccccc1)(C)C,C8H11NO,"InChI=1S/C8H11NO/c1-9(2,10)8-6-4-3-5-7-8/h3-7H,1-2H3",137.17904,-5.189211129035001,-0.30748865106500034,4.88172247797,3.855775363736975
000000951,NCC(c1ccc(c(c1)O)O)O,C8H11NO3,"InChI=1S/C8H11NO3/c9-4-8(12)5-1-2-6(10)7(11)3-5/h1-3,8,10-12H,4,9H2",169.17784,-5.532074580665,0.10068212468500004,5.63275670535,2.6048644882354246
000000952,OCC1OCC(C1O)O,C5H10O4,"InChI=1S/C5H10O4/c6-1-4-5(8)3(7)2-9-4/h3-8H,1-2H2",134.1305,-6.62869339818,0.7591976428949998,7.387891041075,1.8826882071476945
000000953,OC(=O)C(CCOP(=O)(O)O)N,C4H10NO6P,"InChI=1S/C4H10NO6P/c5-3(4(6)7)1-2-11-12(8,9)10/h3H,1-2,5H2,(H,6,7)(H2,8,9,10)",199.099061,-6.865432448115,0.07619187814000039,6.941624326255001,4.841882757537816
000000954,O=C(CCC(=O)O)OCCC(C(=O)O)N,C8H13NO6,"InChI=1S/C8H13NO6/c9-5(8(13)14)3-4-15-7(12)2-1-6(10)11/h5H,1-4,9H2,(H,10,11)(H,13,14)",219.19192,-6.985162542335,-1.1102245100400001,5.874938032295,2.6592436152073393
000000955,OC(=O)CCC(=O)c1ccccc1C(=O)O,C11H10O5,"InChI=1S/C11H10O5/c12-9(5-6-10(13)14)7-3-1-2-4-8(7)11(15)16/h1-4H,5-6H2,(H,13,14)(H,15,16)",222.1941,-7.281766639380001,-2.315688867755,4.966077771625001,5.580714906217841
000000957,CCCCCCCCO,C8H18O,"InChI=1S/C8H18O/c1-2-3-4-5-6-7-8-9/h9H,2-8H2,1H3",130.22792,-6.898086110175,2.1170457568899996,9.015131867065,1.734787627187547
000000962,O,H2O,InChI=1S/H2O/h1H2,18.01528,-7.926676465065,1.8639798759250006,9.790656340990001,2.0276952463259854
000000964,OCC(=O)C(=O)O,C3H4O4,"InChI=1S/C3H4O4/c4-1-2(5)3(6)7/h4H,1H2,(H,6,7)",104.06146,-7.455919503700001,-2.6939271199500006,4.76199238375,2.3771959354939596
000000965,CCCCCCCCC=CCCCCCCCC(=O)O,C18H34O2,"InChI=1S/C18H34O2/c1-2-3-4-5-6-7-8-9-10-11-12-13-14-15-16-17-18(19)20/h9-10H,2-8,11-17H2,1H3,(H,19,20)",282.46136,-6.31848360861,0.23401791142999961,6.55250152004,4.228911094071145
000000968,OC1C(O)C(OC1n1c(=O)[nH]c(=O)cc1C(=O)O)COP(=O)(O)O,C10H13N2O11P,"InChI=1S/C10H13N2O11P/c13-5-1-3(9(16)17)12(10(18)11-5)8-7(15)6(14)4(23-8)2-22-24(19,20)21/h1,4,6-8,14-15H,2H2,(H,16,17)(H,11,13,18)(H2,19,20,21)",368.190781,-7.366121933035,-2.4653514855300003,4.900770447505,6.0493347392882795
000000970,OC(=O)CC(=O)C(=O)O,C4H4O5,"InChI=1S/C4H4O5/c5-2(4(8)9)1-3(6)7/h1H2,(H,6,7)(H,8,9)",132.07156,-7.747081323735,-3.18917432786,4.557906995875,3.9468659766040957
000000971,OC(=O)C(=O)O,C2H2O4,"InChI=1S/C2H2O4/c3-1(4)2(5)6/h(H,3,4)(H,5,6)",90.03488,-8.030079728255,-2.28031406719,5.749765661065,0.0001411523999087511
000000972,OC(=O)CC(C(=O)C(=O)O)C(=O)O,C6H6O7,"InChI=1S/C6H6O7/c7-3(8)1-2(5(10)11)4(9)6(12)13/h2H,1H2,(H,7,8)(H,10,11)(H,12,13)",190.10764,-7.80966750935,-3.1075401727099994,4.70212733664,3.5873378375114044
000000974,OC(=O)C(=O)N,C2H3NO3,"InChI=1S/C2H3NO3/c3-1(4)2(5)6/h(H2,3,4)(H,5,6)",89.05012,-7.36340079453,-1.63812538001,5.72527541452,3.0060640498770144
000000976,OC(=O)C(=O)CC=C,C5H6O3,"InChI=1S/C5H6O3/c1-2-3-4(6)5(7)8/h2H,1,3H2,(H,7,8)",114.09934,-7.066796697485,-2.353784806825,4.71301189066,2.3151423409445044
000000977,O=O,O2,InChI=1S/O2/c1-2,31.9988,-5.744323384055001,-3.779661383445,1.9646620006100006,2e-06
000000978,OC(=O)c1ccc(cc1)N,C7H7NO2,"InChI=1S/C7H7NO2/c8-6-3-1-5(2-4-6)7(9)10/h1-4H,8H2,(H,9,10)",137.13598,-5.87221689379,-0.7102171498050005,5.161999743985,6.797149739928201
000000979,Oc1ccc(cc1)CC(=O)C(=O)O,C9H8O4,"InChI=1S/C9H8O4/c10-7-3-1-6(2-4-7)5-8(11)9(12)13/h1-4,10H,5H2,(H,12,13)",180.15742,-6.076302281665,-2.288477482705,3.78782479896,3.717987891071594
000000980,Oc1ccc(cc1)[N+](=O)[O-],C6H5NO3,"InChI=1S/C6H5NO3/c8-6-3-1-5(2-4-6)7(9)10/h1-4,8H",139.1088,-6.83549992456,-2.119766895395,4.7157330291649995,5.434873218034621
000000981,OC(=O)CC(C(=O)O)NC(=O)c1ncn(c1N)C1OC(C(C1O)O)COP(=O)(O)O,C13H19N4O12P,"InChI=1S/C13H19N4O12P/c14-10-7(11(22)16-4(13(23)24)1-6(18)19)15-3-17(10)12-9(21)8(20)5(29-12)2-28-30(25,26)27/h3-5,8-9,12,20-21H,1-2,14H2,(H,16,22)(H,18,19)(H,23,24)(H2,25,26,27)",454.283321,-5.298056669235001,-0.4353821607999997,4.862674508435001,11.455037764295191
000000983,OP(=O)(OP(=O)(O)O)OP(=O)(O)O,H5O10P3,"InChI=1S/H5O10P3/c1-11(2,3)9-13(7,8)10-12(4,5)6/h(H,7,8)(H2,1,2,3)(H2,4,5,6)",257.954983,-8.759344847595,-0.6394675486750003,8.11987729892,1.5704814827682623
000000984,CCCCCCCCCCCCCCCC=O,C16H32O,"InChI=1S/C16H32O/c1-2-3-4-5-6-7-8-9-10-11-12-13-14-15-16-17/h16H,2-15H2,1H3",240.42468,-6.840942201570001,-0.5251797314650002,6.315762470105001,2.439846286057792
000000985,CCCCCCCCCCCCCCCC(=O)O,C16H32O2,"InChI=1S/C16H32O2/c1-2-3-4-5-6-7-8-9-10-11-12-13-14-15-16(17)18/h2-15H2,1H3,(H,17,18)",256.42408,-7.39605445659,0.24218132694500039,7.638235783535,4.225798357006874
000000987,SCCNC(=O)CCNC(=O)C(C(COP(=O)(O)O)(C)C)O,C11H23N2O7PS,"InChI=1S/C11H23N2O7PS/c1-11(2,7-20-21(17,18)19)9(15)10(16)13-4-3-8(14)12-5-6-22/h9,15,22H,3-7H2,1-2H3,(H,12,14)(H,13,16)(H2,17,18,19)",358.348281,-6.353858409175,0.1795951413300001,6.533453550505,4.446944915102953
000000988,OCC(C(C(=O)NCCC(=O)O)O)(C)C,C9H17NO5,"InChI=1S/C9H17NO5/c1-9(2,5-11)7(14)8(15)10-4-3-6(12)13/h7,11,14H,3-5H2,1-2H3,(H,10,15)(H,12,13)",219.23498,-6.62325112117,-0.3374211746200002,6.28582994655,4.603428374990427
000000989,OC1C(=O)OCC1(C)C,C6H10O3,"InChI=1S/C6H10O3/c1-6(2)3-9-5(8)4(6)7/h4,7H,3H2,1-2H3",130.1418,-7.085844667020001,-0.2693927119949997,6.816451955025001,4.542366334770567
000000991,CCOP(=S)(Oc1ccc(cc1)[N+](=O)[O-])OCC,C10H14NO5PS,"InChI=1S/C10H14NO5PS/c1-3-14-17(18,15-4-2)16-10-7-5-9(6-8-10)11(12)13/h5-8H,3-4H2,1-2H3",291.260621,-7.099450359545001,-2.3292945602799993,4.770155799265002,6.414492291345044
000000992,Clc1c(O)c(Cl)c(c(c1Cl)Cl)Cl,C6HCl5O,InChI=1S/C6HCl5O/c7-1-2(8)4(10)6(12)5(11)3(1)9/h12H,266.33654,-6.636856813695,-1.3061464824,5.330710331295,2.050826984634735
000000993,OCC1OC(C(C1O)O)O,C5H10O5,"InChI=1S/C5H10O5/c6-1-2-3(7)4(8)5(9)10-2/h2-9H,1H2",150.1299,-7.006931650375,0.7591976428949998,7.76612929327,2.1431351875731033
000000994,NC(C(=O)O)Cc1ccccc1,C9H11NO2,"InChI=1S/C9H11NO2/c10-8(9(11)12)6-7-4-2-1-3-5-7/h1-5,8H,6,10H2,(H,11,12)",165.18914,-6.5905974591100005,-0.5469488395050002,6.043648619605,3.6280382586429543
000000995,c1ccc2c(c1)c1ccccc1cc2,C14H10,InChI=1S/C14H10/c1-3-7-13-11(5-1)9-10-12-6-2-4-8-14(12)13/h1-10H,178.2292,-5.77425590761,-0.9551196152549997,4.819136292355,0.03940600164949496
000000996,Oc1ccccc1,C6H6O,"InChI=1S/C6H6O/c7-6-4-2-1-3-5-6/h1-5,7H",94.11124,-5.896707140335001,0.016326831029999767,5.913033971365,1.3620192190251943
000000997,O=C(C(=O)O)Cc1ccccc1,C9H8O3,"InChI=1S/C9H8O3/c10-8(9(11)12)6-7-4-2-1-3-5-7/h1-5H,6H2,(H,11,12)",164.15802,-6.75386576941,-2.37283277636,4.38103299305,2.3833796625863033
000000998,O=CCc1ccccc1,C8H8O,"InChI=1S/C8H8O/c9-7-6-8-4-2-1-3-5-8/h1-5,7H,6H2",120.14852,-6.61780884416,-0.9197448146899996,5.69806402947,2.7051444302088568
000000999,OC(=O)Cc1ccccc1,C8H8O2,"InChI=1S/C8H8O2/c9-8(10)6-7-4-2-1-3-5-7/h1-5H,6H2,(H,9,10)",136.14792,-6.9116918027,-0.6285829946549999,6.283108808045,4.808334972843197
000001000,NCC(c1ccccc1)O,C8H11NO,"InChI=1S/C8H11NO/c9-6-8(10)7-4-2-1-3-5-7/h1-5,8,10H,6,9H2",137.17904,-6.500799888445,-0.040817077575000305,6.45998281087,2.6024496563758923
000001001,NCCc1ccccc1,C8H11N,"InChI=1S/C8H11N/c9-7-6-8-4-2-1-3-5-8/h1-5H,6-7,9H2",121.17964,-6.21508034542,0.10068212468500004,6.315762470105,1.3141041956572546
000001002,O=C1NC(=O)NC1c1ccccc1,C9H8N2O2,"InChI=1S/C9H8N2O2/c12-8-7(10-9(13)11-8)6-4-2-1-3-5-6/h1-5,7H,(H2,10,11,12,13)",176.17202,-6.8790381406400005,-0.6748423492400004,6.2041957914,2.9865221886341313
000001004,OP(=O)(O)O,H3O4P,"InChI=1S/H3O4P/c1-5(2,3)4/h(H3,1,2,3,4)",97.995181,-8.372943179884999,0.33197889761,8.704922077494999,2.6190854026749495
000001005,OC(=O)C(=C)OP(=O)(O)O,C3H5O6P,"InChI=1S/C3H5O6P/c1-2(3(4)5)9-10(6,7)8/h1H2,(H,4,5)(H2,6,7,8)",168.041961,-7.398775595095,-1.363290391005,6.0354852040899996,4.977932015253222
000001007,OC(C(C(=O)O)N)COP(=O)(O)O,C4H10NO7P,"InChI=1S/C4H10NO7P/c5-3(4(7)8)2(6)1-12-13(9,10)11/h2-3,6H,1,5H2,(H,7,8)(H2,9,10,11)",215.098461,-6.947066603265001,-0.3673536981750001,6.579712905090001,6.136662060562729
000001010,OC1C(O)C(OC1n1cnc(c1N)C(=O)O)COP(=O)(O)O,C9H14N3O9P,"InChI=1S/C9H14N3O9P/c10-7-4(9(15)16)11-2-12(7)8-6(14)5(13)3(21-8)1-20-22(17,18)19/h2-3,5-6,8,13-14H,1,10H2,(H,15,16)(H2,17,18,19)",339.195921,-5.40418107093,-0.04898049309000019,5.35520057784,9.223146575449888
000001011,O=CNc1c(ncn1C1OC(C(C1O)O)COP(=O)(O)O)C(=O)N,C10H15N4O9P,"InChI=1S/C10H15N4O9P/c11-8(18)5-9(13-3-15)14(2-12-5)10-7(17)6(16)4(23-10)1-22-24(19,20)21/h2-4,6-7,10,16-17H,1H2,(H2,11,18)(H,13,15)(H2,19,20,21)",366.221261,-5.809630708175,-0.7619187814000004,5.0477119267749995,8.49305846822221
000001015,NCCOP(=O)(O)O,C2H8NO4P,"InChI=1S/C2H8NO4P/c3-1-2-7-8(4,5)6/h1-3H2,(H2,4,5,6)",141.062981,-6.416444594790001,0.6231407176449997,7.039585312435,1.469916805623366
000001016,OC(=O)C(C(OP(=O)(O)O)C)N,C4H10NO6P,"InChI=1S/C4H10NO6P/c1-2(3(5)4(6)7)11-12(8,9)10/h2-3H,5H2,1H3,(H,6,7)(H2,8,9,10)",199.099061,-6.832778786055,-0.3020463740550001,6.530732412,2.965070736987062
000001017,OC(=O)c1ccccc1C(=O)O,C8H6O4,"InChI=1S/C8H6O4/c9-7(10)5-3-1-2-4-6(5)8(11)12/h1-4H,(H,9,10)(H,11,12)",166.13084,-7.311699162935,-1.7660188897450002,5.5456802731899995,6.729865415592648
000001018,OC(=O)c1ccccn1,C6H5NO2,"InChI=1S/C6H5NO2/c8-6(9)5-3-1-2-4-7-5/h1-4H,(H,8,9)",123.1094,-7.338910547985,-1.8530953219050001,5.48581522608,5.442089558101832
000001019,Oc1ccc(cc1OP(=O)(O)O)[N+](=O)[O-],C6H6NO7P,"InChI=1S/C6H6NO7P/c8-5-2-1-4(7(9)10)3-6(5)14-15(11,12)13/h1-3,8H,(H2,11,12,13)",235.088101,-6.898086110175,-2.2639872361599993,4.634098874015001,3.2842680516130223
000001020,CC(=CCCC=CCOP(=O)(OP(=O)(O)O)O)C,C9H18O7P2,"InChI=1S/C9H18O7P2/c1-9(2)7-5-3-4-6-8-15-18(13,14)16-17(10,11)12/h4,6-7H,3,5,8H2,1-2H3,(H,13,14)(H2,10,11,12)",300.182542,-6.26950311552,0.14966261777500023,6.419165733295,2.7178085634014035
000001021,NCc1[nH]cc(c1CC(=O)O)CCC(=O)O,C10H14N2O4,"InChI=1S/C10H14N2O4/c11-4-8-7(3-10(15)16)6(5-12-8)1-2-9(13)14/h5,12H,1-4,11H2,(H,13,14)(H,15,16)",226.22916,-5.9320819409,-0.5823236400700003,5.34975830083,10.881035688363951
000001023,OP(=O)(OP(=O)(O)O)O,H4O7P2,"InChI=1S/H4O7P2/c1-8(2,3)7-9(4,5)6/h(H2,1,2,3)(H2,4,5,6)",177.975082,-8.57158629075,-0.4816415153850002,8.089944775365,3.8305904290804826
000001024,OC(=O)c1cc(nc2c1c1[nH]c(cc1C(=O)C2=O)C(=O)O)C(=O)O,C14H6N2O8,"InChI=1S/C14H6N2O8/c17-10-4-2-6(14(23)24)15-8(4)7-3(12(19)20)1-5(13(21)22)16-9(7)11(10)18/h1-2,15H,(H,19,20)(H,21,22)(H,23,24)",330.20604,-7.06407555898,-3.676258120255,3.387817438725,2.2555198029460968
000001026,O=C1NC(=NC2C1NC(=CN2)C(C1OP(=O)(O)OCC1O)O)N,C10H16N5O7P,"InChI=1S/C10H16N5O7P/c11-10-14-8-5(9(18)15-10)13-3(1-12-8)6(17)7-4(16)2-21-23(19,20)22-7/h1,4-8,12-13,16-17H,2H2,(H,19,20)(H3,11,14,15,18)",349.237101,-4.900770447505001,-0.9660041692750001,3.9347662782300006,9.454906154851301
000001027,OC1CCC2(C(=CCC3C2CCC2(C3CCC2C(=O)C)C)C1)C,C21H32O2,"InChI=1S/C21H32O2/c1-13(22)17-6-7-18-16-5-4-14-12-15(23)8-10-20(14,2)19(16)9-11-21(17,18)3/h4,15-19,23H,5-12H2,1-3H3",316.47758,-6.13344619027,-0.3646325596700004,5.7688136305999995,2.5774738129210935
000001028,OC1C=CC(C=C1)(CC(=O)C(=O)O)C(=O)O,C10H10O6,"InChI=1S/C10H10O6/c11-6-1-3-10(4-2-6,9(15)16)5-7(12)8(13)14/h1-4,6,11H,5H2,(H,13,14)(H,15,16)",226.1828,-7.306256885925,-2.6939271199500006,4.612329765975,3.018783307242837
000001029,NCC(CCC(C(=O)O)N)O,C6H14N2O3,"InChI=1S/C6H14N2O3/c7-3-4(9)1-2-5(8)6(10)11/h4-5,9H,1-3,7-8H2,(H,10,11)",162.18696,-6.39467548675,0.5360642854849997,6.9307397722349995,3.973970509843021
000001030,OCC(O)C,C3H8O2,"InChI=1S/C3H8O2/c1-3(5)2-4/h3-5H,2H2,1H3",76.09442,-6.87359586363,1.7415286431999997,8.61512450683,2.430383084701052
000001031,CCCO,C3H8O,"InChI=1S/C3H8O/c1-2-3-4/h4H,2-3H2,1H3",60.09502,-6.99876823486,2.1007189258600008,9.09948716072,1.6902837164680373
000001032,CCC(=O)O,C3H6O2,"InChI=1S/C3H6O2/c1-2-3(4)5/h2H2,1H3,(H,4,5)",74.07854,-7.513063412305001,0.17415286431999988,7.6872162766250005,4.228550123163967
000001034,CCC(=O)OP(=O)(O)O,C3H7O5P,"InChI=1S/C3H7O5P/c1-2-3(4)8-9(5,6)7/h2H2,1H3,(H2,5,6,7)",154.058441,-8.06545452882,-0.5061317619299999,7.55932276689,2.0272909436718747
000001035,CCCCCC(C=CC1C2OOC(C1CC=CCCCC(=O)O)C2)O,C20H32O5,"InChI=1S/C20H32O5/c1-2-3-6-9-15(21)12-13-17-16(18-14-19(17)25-24-18)10-7-4-5-8-11-20(22)23/h4,7,12-13,15-19,21H,2-3,5-6,8-11,14H2,1H3,(H,22,23)",352.46508,-6.043648619605,0.1251723712299997,6.168820990835,1.3753608462189113