mol_id,SMILES,formula,inchi,mass,HOMO(eV),LUMO(eV),GAP(eV),dipole_moment
000002687,OC(COc1cccc2c1[nH]c(=O)[nH]2)CNC(C)(C)C,C14H21N3O3,"InChI=1S/C14H21N3O3/c1-14(2,3)15-7-9(18)8-20-11-6-4-5-10-12(11)17-13(19)16-10/h4-6,9,15,18H,7-8H2,1-3H3,(H2,16,17,19)",279.33484,-5.56744938123,0.10068212468500004,5.668131505915,3.2188804591399474
000002688,O=C1CSC(c2c(N1)ccc(c2)Cl)c1ccccc1Cl,C15H11Cl2NOS,"InChI=1S/C15H11Cl2NOS/c16-9-5-6-13-11(7-9)15(20-8-14(19)18-13)10-3-1-2-4-12(10)17/h1-7,15H,8H2,(H,18,19)",324.22494,-6.024600650070001,-1.10478223303,4.919818417040001,2.588964400214495
000002689,CN1CCN(CC1)c1nc2cc(ccc2n2c1ccc2)C(F)(F)F,C17H17F3N4,"InChI=1S/C17H17F3N4/c1-22-7-9-23(10-8-22)16-15-3-2-6-24(15)14-5-4-12(17(18,19)20)11-13(14)21-16/h2-6,11H,7-10H2,1H3",334.3388896,-5.3796908243849995,-1.406828607085,3.9728622172999994,4.926333106136247
000002691,CCNC(=O)C1OC(C(C1O)O)n1cnc2c1nc(NCCc1ccc(cc1)CCC(=O)O)nc2N,C23H29N7O6,"InChI=1S/C23H29N7O6/c1-2-25-21(35)18-16(33)17(34)22(36-18)30-11-27-15-19(24)28-23(29-20(15)30)26-10-9-13-5-3-12(4-6-13)7-8-14(31)32/h3-6,11,16-18,22,33-34H,2,7-10H2,1H3,(H,25,35)(H,31,32)(H3,24,26,28,29)",499.51966,-5.396017655415,-0.6666789337249996,4.7293387216900005,4.159903844262389
000002692,OCC1OC(C(C1O)O)n1cnc2c1ncnc2NC1CCCCC1,C16H23N5O4,"InChI=1S/C16H23N5O4/c22-6-10-12(23)13(24)16(25-10)21-8-19-11-14(17-7-18-15(11)21)20-9-4-2-1-3-5-9/h7-10,12-13,16,22-24H,1-6H2,(H,17,18,20)",349.38492,-5.771534769105,-0.8626009060850004,4.90893386302,3.32048626100109
000002700,CCOC(=O)CCCCCCCCCCCCC1C=CCC1,C20H36O2,"InChI=1S/C20H36O2/c1-2-22-20(21)18-12-10-8-6-4-3-5-7-9-11-15-19-16-13-14-17-19/h13,16,19H,2-12,14-15,17-18H2,1H3",308.49864,-6.288551085055,0.39728622172999994,6.685837306785,1.3603403386987392
000002702,COc1c(OC)ccc2c1cc(N)c1c2ccc2c1cc1OCOc1c2,C21H17NO4,"InChI=1S/C21H17NO4/c1-23-17-6-5-12-13-4-3-11-7-18-19(26-10-25-18)9-14(11)20(13)16(22)8-15(12)21(17)24-2/h3-9H,10,22H2,1-2H3",347.36398,-4.94158752508,-0.9660041692750001,3.975583355805,2.6500503196258367
000002704,OC(=O)C1NC(CC(=O)C1)C(=O)O,C7H9NO5,"InChI=1S/C7H9NO5/c9-3-1-4(6(10)11)8-5(2-3)7(12)13/h4-5,8H,1-2H2,(H,10,11)(H,12,13)",187.15006,-7.069517835989999,-1.2734928203400004,5.796025015649999,5.134355757020057
000002705,OC1CCC2(C(C1)CC(C1C2CCC2(C1CCCC2C(CCC(=O)O)C)C)O)C,C25H42O4,"InChI=1S/C25H42O4/c1-15(7-8-22(28)29)18-5-4-6-19-23-20(10-12-25(18,19)3)24(2)11-9-17(26)13-16(24)14-21(23)27/h15-21,23,26-27H,4-14H2,1-3H3,(H,28,29)",406.59858,-6.9661145728000005,0.20952766488499996,7.175642237685,4.780763885599246
000002707,OC(C(Cl)(Cl)Cl)O,C2H3Cl3O2,"InChI=1S/C2H3Cl3O2/c3-2(4,5)1(6)7/h1,6-7H",165.40302,-8.057291113305,-0.8245049670149998,7.2327861462900005,1.6826530145246819
000002708,ClCCN(c1ccc(cc1)CCCC(=O)O)CCCl,C14H19Cl2NO2,"InChI=1S/C14H19Cl2NO2/c15-8-10-17(11-9-16)13-6-4-12(5-7-13)2-1-3-14(18)19/h4-7H,1-3,8-11H2,(H,18,19)",304.21216,-5.483094087575,-0.4081707757500004,5.074923311825,3.4152571516549086
000002710,CN1CCN(CC1)C(c1ccc(cc1)Cl)c1ccccc1,C18H21ClN2,"InChI=1S/C18H21ClN2/c1-20-11-13-21(14-12-20)18(15-5-3-2-4-6-15)16-7-9-17(19)10-8-16/h2-10,18H,11-14H2,1H3",300.82574,-5.153836328470001,-0.5659968090399996,4.587839519430001,2.0725817361093384
000002711,ClC1CC2C(C1Cl)C1(C(C2(Cl)C(C1Cl)Cl)(Cl)Cl)Cl,C10H8Cl8,"InChI=1S/C10H8Cl8/c11-3-1-2-4(5(3)12)9(16)7(14)6(13)8(2,15)10(9,17)18/h2-7H,1H2",411.79452,-7.314420301439999,-0.6993325957850001,6.615087705654999,3.839684422004626
000002712,CN=C1CN(O)C(=c2c(=N1)ccc(c2)Cl)c1ccccc1,C16H14ClN3O,"InChI=1S/C16H14ClN3O/c1-18-15-10-20(21)16(11-5-3-2-4-6-11)13-9-12(17)7-8-14(13)19-15/h2-9,21H,10H2,1H3",299.75486,-5.858611201265,-2.58508157975,3.273529621515,2.5549942730481803
000002714,O=C1CCC2(C(=C1)C(=CC1C2CCC2(C1CCC2(OC(=O)C)C(=O)C)C)Cl)C,C23H29ClO4,"InChI=1S/C23H29ClO4/c1-13(25)23(28-14(2)26)10-7-18-16-12-20(24)19-11-15(27)5-8-21(19,3)17(16)6-9-22(18,23)4/h11-12,16-18H,5-10H2,1-4H3",404.92696,-5.09941355837,-1.994594524165,3.104819034205,7.215610140459225
000002717,CN1C(=O)CCS(=O)(=O)C1c1ccc(cc1)Cl,C11H12ClNO3S,"InChI=1S/C11H12ClNO3S/c1-13-10(14)6-7-17(15,16)11(13)8-2-4-9(12)5-3-8/h2-5,11H,6-7H2,1H3",273.73588,-6.86271130961,-0.95239847675,5.91031283286,1.6703260579949653
000002718,CC(=O)Oc1ccc(c2c1nccc2)Cl,C11H8ClNO2,"InChI=1S/C11H8ClNO2/c1-7(14)15-10-5-4-9(12)8-3-2-6-13-11(8)10/h2-6H,1H3",221.63972,-6.11167708223,-1.70343270413,4.4082443781,1.8482774835778852
000002719,CCN(CCCC(Nc1ccnc2c1ccc(c2)Cl)C)CC,C18H26ClN3,"InChI=1S/C18H26ClN3/c1-4-22(5-2)12-6-7-14(3)21-17-10-11-20-18-13-15(19)8-9-16(17)18/h8-11,13-14H,4-7,12H2,1-3H3,(H,20,21)",319.87214,-5.51846888814,-1.0857342634949996,4.432734624645001,6.979366100539934
000002720,Clc1cc2NC=NS(=O)(=O)c2cc1S(=O)(=O)N,C7H6ClN3O4S2,"InChI=1S/C7H6ClN3O4S2/c8-4-1-5-7(2-6(4)16(9,12)13)17(14,15)11-3-10-5/h1-3H,(H,10,11)(H2,9,12,13)",295.72324,-7.12394060609,-2.08439209483,5.03954851126,8.436036345796822
000002721,COc1ccc(cc1)C(=C(c1ccc(cc1)OC)Cl)c1cccc(c1)OC,C23H21ClO3,"InChI=1S/C23H21ClO3/c1-25-19-11-7-16(8-12-19)22(18-5-4-6-21(15-18)27-3)23(24)17-9-13-20(26-2)14-10-17/h4-15H,1-3H3",380.86404,-5.153836328470001,-0.8108992744899997,4.342937053980001,1.2963795278991412
000002722,Clc1cc(Cl)c2c(c1O)nccc2,C9H5Cl2NO,"InChI=1S/C9H5Cl2NO/c10-6-4-7(11)9(13)8-5(6)2-1-3-12-8/h1-4,13H",214.0481,-5.94296649492,-1.8667010144299994,4.076265480490001,3.217134824553363
000002723,Oc1cc(C)c(c(c1)C)Cl,C8H9ClO,"InChI=1S/C8H9ClO/c1-5-3-7(10)4-6(2)8(5)9/h3-4,10H,1-2H3",156.60946,-5.752486799570001,-0.07619187814000039,5.67629492143,1.8933930884132328
000002724,OC(COC(=O)N)COc1ccc(cc1)Cl,C10H12ClNO4,"InChI=1S/C10H12ClNO4/c11-7-1-3-9(4-2-7)15-5-8(13)6-16-10(12)14/h1-4,8,13H,5-6H2,(H2,12,14)",245.65958,-5.749765661065,-0.23129677292499995,5.51846888814,3.309903370776555
000002725,CN(CCC(c1ccccn1)c1ccc(cc1)Cl)C,C16H19ClN2,"InChI=1S/C16H19ClN2/c1-19(2)12-10-15(16-5-3-4-11-18-16)13-6-8-14(17)9-7-13/h3-9,11,15H,10,12H2,1-2H3",274.78846,-5.9130339713649995,-0.7319862578449996,5.18104771352,2.7676027669398295
000002726,CN(CCCN1c2ccccc2Sc2c1cc(Cl)cc2)C,C17H19ClN2S,"InChI=1S/C17H19ClN2S/c1-19(2)10-5-11-20-14-6-3-4-7-16(14)21-17-9-8-13(18)12-15(17)20/h3-4,6-9,12H,5,10-11H2,1-2H3",318.86416,-4.933424109565,-0.5714390860499998,4.361985023515,3.096367417911027
000002727,CCCNC(=O)NS(=O)(=O)c1ccc(cc1)Cl,C10H13ClN2O3S,"InChI=1S/C10H13ClN2O3S/c1-2-7-12-10(14)13-17(15,16)9-5-3-8(11)4-6-9/h3-6H,2,7H2,1H3,(H2,12,13,14)",276.73982,-6.97155684981,-1.4694147927000003,5.5021420571099995,4.508748778003161
000002728,CC(OC(=O)Nc1cccc(c1)Cl)C,C10H12ClNO2,"InChI=1S/C10H12ClNO2/c1-7(2)14-10(13)12-9-5-3-4-8(11)6-9/h3-7H,1-2H3,(H,12,13)",213.66078,-6.0790234201699995,-0.2775561275099996,5.80146729266,4.182143160840026
000002729,CN(CCC=C1c2ccccc2Sc2c1cc(Cl)cc2)C,C18H18ClNS,"InChI=1S/C18H18ClNS/c1-20(2)11-5-7-14-15-6-3-4-8-17(15)21-18-10-9-13(19)12-16(14)18/h3-4,6-10,12H,5,11H2,1-2H3",315.86022,-5.526632303655,-1.074849709475,4.45178259418,1.9343456274047823
000002730,CCOP(=S)(Oc1nc(Cl)c(cc1Cl)Cl)OCC,C9H11Cl3NO3PS,"InChI=1S/C9H11Cl3NO3PS/c1-3-14-17(18,15-4-2)16-9-7(11)5-6(10)8(12)13-9/h5H,3-4H2,1-2H3",350.586301,-6.5851551821,-1.7905091362899999,4.79464604581,4.040110021446569
000002732,O=C1NC(c2c1cccc2)(O)c1ccc(c(c1)S(=O)(=O)N)Cl,C14H11ClN2O4S,"InChI=1S/C14H11ClN2O4S/c15-11-6-5-8(7-12(11)22(16,20)21)14(19)10-4-2-1-3-9(10)13(18)17-14/h1-7,19H,(H,17,18)(H2,16,20,21)",338.76614,-6.86271130961,-1.5347221168200003,5.32798919279,1.6672531588613049
000002733,Clc1ccc2c(c1)[nH]c(=O)o2,C7H4ClNO2,"InChI=1S/C7H4ClNO2/c8-4-1-2-6-5(3-4)9-7(10)11-6/h1-3H,(H,9,10)",169.56516,-6.307599054590001,-0.7918513049550002,5.5157477496350005,2.3980856046984647
000002734,O=c1[nH]c2c(o1)cc(c(c2)Cl)O,C7H4ClNO3,"InChI=1S/C7H4ClNO3/c8-3-1-4-6(2-5(3)10)12-7(11)9-4/h1-2,10H,(H,9,11)",185.56456,-5.8232364007,-0.7183805653200004,5.1048558353799995,1.6207850378841113
000002735,CC(CCCC(C1CCC2C1(C)CCCC2=CC=C1CC(O)CCC1=C)C)C,C27H44O,"InChI=1S/C27H44O/c1-19(2)8-6-9-21(4)25-15-16-26-22(10-7-17-27(25,26)5)12-13-23-18-24(28)14-11-20(23)3/h12-13,19,21,24-26,28H,3,6-11,14-18H2,1-2,4-5H3",384.63766,-5.341594885315001,-0.6040927481100002,4.737502137205,1.2649699978940212
000002736,CCCCCCCCCCCCCCCCC1(OC)OOC(C=C1)CC(=O)OC,C24H44O5,"InChI=1S/C24H44O5/c1-4-5-6-7-8-9-10-11-12-13-14-15-16-17-19-24(27-3)20-18-22(28-29-24)21-23(25)26-2/h18,20,22H,4-17,19,21H2,1-3H3",412.60316,-6.53617468901,-0.144220340765,6.391954348245,2.8032768996617157
000002741,OC(=O)c1cc(=O)c2c(o1)cccc2,C10H6O4,"InChI=1S/C10H6O4/c11-7-5-9(10(12)13)14-8-4-2-1-3-6(7)8/h1-5H,(H,12,13)",190.15224,-7.12394060609,-2.4544669315100007,4.669473674579999,6.060484790369579
000002743,CC(=CC1C(C1(C)C)C(=O)O)C,C10H16O2,"InChI=1S/C10H16O2/c1-6(2)5-7-8(9(11)12)10(7,3)4/h5,7-8H,1-4H3,(H,11,12)",168.23284,-6.598760874625,-0.09796098618000038,6.500799888445,5.849546782994474
000002746,CC(=O)Nc1ccc(cc1)C(=O)Nc1ccccc1N,C15H15N3O2,"InChI=1S/C15H15N3O2/c1-10(19)17-12-8-6-11(7-9-12)15(20)18-14-5-3-2-4-13(14)16/h2-9H,16H2,1H3,(H,17,19)(H,18,20)",269.2985,-5.41506562495,-0.7809667509349998,4.634098874015001,5.960498726308312
000002747,c1ccc(cc1)C1(CC1C1=NCCN1)c1ccccc1,C18H18N2,"InChI=1S/C18H18N2/c1-3-7-14(8-4-1)18(15-9-5-2-6-10-15)13-16(18)17-19-11-12-20-17/h1-10,16H,11-13H2,(H,19,20)",262.34892,-5.64364125937,-0.4816415153850002,5.161999743985,2.6015031954254835
000002748,OC(=O)C1N2C(=O)C(C2SC1(C)C)NC(=O)C1(N)CCCCC1,C15H23N3O4S,"InChI=1S/C15H23N3O4S/c1-14(2)9(12(20)21)18-10(19)8(11(18)23-14)17-13(22)15(16)6-4-3-5-7-15/h8-9,11H,3-7,16H2,1-2H3,(H,17,22)(H,20,21)",341.42582,-6.517126719475,-1.096618817515,5.42050790196,4.502081811764975
000002749,Cc1cc(C2CCCCC2)n(c(=O)c1)O,C12H17NO2,"InChI=1S/C12H17NO2/c1-9-7-11(13(15)12(14)8-9)10-5-3-2-4-6-10/h7-8,10,15H,2-6H2,1H3",207.26888,-5.613708735815001,-0.8462740750549997,4.767434660760001,3.692104675450576
000002750,O=C1NC(=O)C(S1)Cc1ccc(cc1)OCC1(C)CCCCC1,C18H23NO3S,"InChI=1S/C18H23NO3S/c1-18(9-3-2-4-10-18)12-22-14-7-5-13(6-8-14)11-15-16(20)19-17(21)23-15/h5-8,15H,2-4,9-12H2,1H3,(H,19,20,21)",333.44512,-5.956572187445,-0.88709115263,5.069481034815,3.0625479248060756
000002751,CCOC(=O)C(NC1CCCN2N(C1=O)C(CCC2)C(=O)O)CCc1ccccc1,C22H31N3O5,"InChI=1S/C22H31N3O5/c1-2-30-22(29)18(13-12-16-8-4-3-5-9-16)23-17-10-6-14-24-15-7-11-19(21(27)28)25(24)20(17)26/h3-5,8-9,17-19,23H,2,6-7,10-15H2,1H3,(H,27,28)",417.49864,-5.91575510987,-0.4816415153850002,5.434113594485,5.308648126791697
000002752,COCCOC(=O)C1=C(C)NC(=C(C1c1cccc(c1)[N+](=O)[O-])C(=O)OCC=Cc1ccccc1)C,C27H28N2O7,"InChI=1S/C27H28N2O7/c1-18-23(26(30)35-14-8-11-20-9-5-4-6-10-20)25(21-12-7-13-22(17-21)29(32)33)24(19(2)28-18)27(31)36-16-15-34-3/h4-13,17,25,28H,14-16H2,1-3H3",492.52042,-5.91575510987,-2.1197668953949997,3.7959882144750003,4.658097869867485
000002753,O=C(N(C1CCCCC1)C)CCCOc1ccc2c(c1)ccc(=O)[nH]2,C20H26N2O3,"InChI=1S/C20H26N2O3/c1-22(16-6-3-2-4-7-16)20(24)8-5-13-25-17-10-11-18-15(14-17)9-12-19(23)21-18/h9-12,14,16H,2-8,13H2,1H3,(H,21,23)",342.43204,-5.40962334794,-1.3905017760550002,4.019121571885,7.500845703986317
000002754,O=C1CCc2c(N1)ccc(c2)OCCCCc1nnnn1C1CCCCC1,C20H27N5O2,"InChI=1S/C20H27N5O2/c26-20-12-9-15-14-17(10-11-18(15)21-20)27-13-5-4-8-19-22-23-24-25(19)16-6-2-1-3-7-16/h10-11,14,16H,1-9,12-13H2,(H,21,26)",369.46068,-5.333431469800001,-0.541506562495,4.791924907305001,6.26952830230728
000002755,N#Cc1cc(ccc1N)C(CNC(C)C)O,C12H17N3O,"InChI=1S/C12H17N3O/c1-8(2)15-7-12(16)9-3-4-11(14)10(5-9)6-13/h3-5,8,12,15-16H,7,14H2,1-2H3",219.28288,-5.67085264442,-0.9496773382450003,4.721175306175,3.2343629403680105
000002756,N#CNC(=NC)NCCSCc1nc[nH]c1C,C10H16N6S,"InChI=1S/C10H16N6S/c1-8-9(16-7-15-8)5-17-4-3-13-10(12-2)14-6-11/h7H,3-5H2,1-2H3,(H,15,16)(H2,12,13,14)",252.33924,-5.657246951895,0.12245123272500003,5.77969818462,3.536476759779993
000002757,C=CC1CN2CCC1CC2C(c1ccnc2c1cccc2)O,C19H22N2O,"InChI=1S/C19H22N2O/c1-2-13-12-21-10-8-14(13)11-18(21)19(22)16-7-9-20-17-6-4-3-5-15(16)17/h2-7,9,13-14,18-19,22H,1,8,10-12H2",294.39078,-5.861332339770001,-1.2653294048250006,4.596002934945,3.32854805947383
000002758,CC12CCC(CC1)C(O2)(C)C,C10H18O,"InChI=1S/C10H18O/c1-9(2)8-4-6-10(3,11-9)7-5-8/h8H,4-7H2,1-3H3",154.24932,-6.24773400748,1.8476530448950008,8.095387052375001,1.3112686504820434
000002759,COc1cc(C=CC(=O)N2CCN(CC2)CC(=O)N2CCCC2)cc(c1OC)OC,C22H31N3O5,"InChI=1S/C22H31N3O5/c1-28-18-14-17(15-19(29-2)22(18)30-3)6-7-20(26)25-12-10-23(11-13-25)16-21(27)24-8-4-5-9-24/h6-7,14-15H,4-5,8-13,16H2,1-3H3",417.49864,-5.564728242725,-0.9986578313350005,4.566070411389999,5.129772841607511
000002760,c1ccc(cc1)CC=CN1CCN(CC1)C(c1ccccc1)c1ccccc1,C26H28N2,"InChI=1S/C26H28N2/c1-4-11-23(12-5-1)13-10-18-27-19-21-28(22-20-27)26(24-14-6-2-7-15-24)25-16-8-3-9-17-25/h1-12,14-18,26H,13,19-22H2",368.51392,-5.02322168023,-0.3047675125599998,4.71845416767,0.9805906178722087
000002761,c1ccc(cc1)C=CCN1CCN(CC1)C(c1ccccc1)c1ccccc1,C26H28N2,"InChI=1S/C26H28N2/c1-4-11-23(12-5-1)13-10-18-27-19-21-28(22-20-27)26(24-14-6-2-7-15-24)25-16-8-3-9-17-25/h1-17,26H,18-22H2",368.51392,-5.4504404255150005,-0.5034106234250002,4.94702980209,1.3655458190280545
000002762,CCn1nc(C(=O)O)c(=O)c2c1cc1OCOc1c2,C12H10N2O5,"InChI=1S/C12H10N2O5/c1-2-14-7-4-9-8(18-5-19-9)3-6(7)11(15)10(13-14)12(16)17/h3-4H,2,5H2,1H3,(H,16,17)",262.2182,-6.299435639075001,-2.0871132333350007,4.21232240574,10.722199253122934
000002763,OC(=O)C(Oc1ccc(cc1)C1CC1(Cl)Cl)(C)C,C13H14Cl2O3,"InChI=1S/C13H14Cl2O3/c1-12(2,11(16)17)18-9-5-3-8(4-6-9)10-7-13(10,14)15/h3-6,10H,7H2,1-2H3,(H,16,17)",289.15446,-6.566107212565,-0.5959293325950004,5.97017787997,5.342681994323825
000002764,Fc1cc2c(cc1N1CCNCC1)n(cc(c2=O)C(=O)O)C1CC1,C17H18FN3O3,"InChI=1S/C17H18FN3O3/c18-13-7-11-14(8-15(13)20-5-3-19-4-6-20)21(10-1-2-10)9-12(16(11)22)17(23)24/h7-10,19H,1-6H2,(H,23,24)",331.3415232,-5.836842093225,-1.55104894785,4.285793145375,10.65815984969793
000002765,C1CN=C(N1)COc1ccccc1C1CC1,C13H16N2O,"InChI=1S/C13H16N2O/c1-2-4-12(11(3-1)10-5-6-10)16-9-13-14-7-8-15-13/h1-4,10H,5-9H2,(H,14,15)",216.27894,-5.902149417345,-0.11700895571499981,5.78514046163,1.6193925104093818
000002766,NCC=CC(=O)O,C4H7NO2,"InChI=1S/C4H7NO2/c5-3-1-2-4(6)7/h1-2H,3,5H2,(H,6,7)",101.10388,-6.840942201570001,-1.2435602967849997,5.597381904785001,5.312200261601025
000002769,COC1CN(CCCOc2ccc(cc2)F)CCC1NC(=O)c1cc(Cl)c(cc1OC)N,C23H29ClFN3O4,"InChI=1S/C23H29ClFN3O4/c1-30-21-13-19(26)18(24)12-17(21)23(29)27-20-8-10-28(14-22(20)31-2)9-3-11-32-16-6-4-15(25)5-7-16/h4-7,12-13,20,22H,3,8-11,14,26H2,1-2H3,(H,27,29)",465.9454632,-5.56200710422,-0.25850815797500015,5.303498946245,4.3955782914684844
000002771,N#Cc1ccc2c(c1)COC2(CCCN(C)C)c1ccc(cc1)F,C20H21FN2O,"InChI=1S/C20H21FN2O/c1-23(2)11-3-10-20(17-5-7-18(21)8-6-17)19-9-4-15(13-22)12-16(19)14-24-20/h4-9,12H,3,10-11,14H2,1-2H3",324.3919432,-5.93752421791,-1.5047895932650004,4.432734624645,3.469935087217195
000002773,CC(=O)NC1SCCC1=O,C6H9NO2S,"InChI=1S/C6H9NO2S/c1-4(8)7-6-5(9)2-3-10-6/h6H,2-3H2,1H3,(H,7,8)",159.20616,-6.14433074429,-1.1156667870500003,5.02866395724,3.8214132844408493
000002775,COc1cc(OC)c2c(c1)oc(=O)cc2,C11H10O4,"InChI=1S/C11H10O4/c1-13-7-5-9(14-2)8-3-4-11(12)15-10(8)6-7/h3-6H,1-2H3",206.1947,-5.81779412369,-1.5129530087800003,4.304841114909999,5.962839778032695
000002777,O=C(c1cc2c(o1)cccc2)NCCCCN1CCOCC1,C17H22N2O3,"InChI=1S/C17H22N2O3/c20-17(16-13-14-5-1-2-6-15(14)22-16)18-7-3-4-8-19-9-11-21-12-10-19/h1-2,5-6,13H,3-4,7-12H2,(H,18,20)",302.36818,-5.56200710422,-1.297983066885,4.264024037335,3.3072654692317944
000002779,CC(C(C12NC(=O)C(C2OC1=O)C)O)C,C10H15NO4,"InChI=1S/C10H15NO4/c1-4(2)6(12)10-7(15-9(10)14)5(3)8(13)11-10/h4-7,12H,1-3H3,(H,11,13)",213.2304,-6.9225763567200005,-0.14694147926999968,6.775634877450001,4.583930763693317
000002780,COc1cc(N)c(cc1C(=O)NC1CCN(CC1)Cc1ccccc1)Cl,C20H24ClN3O2,"InChI=1S/C20H24ClN3O2/c1-26-19-12-18(22)17(21)11-16(19)20(25)23-15-7-9-24(10-8-15)13-14-5-3-2-4-6-14/h2-6,11-12,15H,7-10,13,22H2,1H3,(H,23,25)",373.87646,-5.363363993355,-0.5796025015649997,4.78376149179,7.888227664798602
000002781,Clc1ccc(cc1)C(c1ccccc1)(OCCC1CCCN1C)C,C21H26ClNO,"InChI=1S/C21H26ClNO/c1-21(17-7-4-3-5-8-17,18-10-12-19(22)13-11-18)24-16-14-20-9-6-15-23(20)2/h3-5,7-8,10-13,20H,6,9,14-16H2,1-2H3",343.89024,-5.63819898236,-0.3918439447199997,5.24635503764,2.8476502516736497
000002782,Clc1ccc(cc1)Cn1c(CN2CCCC2)nc2c1cccc2,C19H20ClN3,"InChI=1S/C19H20ClN3/c20-16-9-7-15(8-10-16)13-23-18-6-2-1-5-17(18)21-19(23)14-22-11-3-4-12-22/h1-2,5-10H,3-4,11-14H2",325.8352,-5.8831014478100006,-0.6176984406350003,5.265403007175,2.8385364000070528
000002783,OC(c1cc(Cl)c(c(c1)Cl)N)CNC(C)(C)C,C12H18Cl2N2O,"InChI=1S/C12H18Cl2N2O/c1-12(2,3)16-6-10(17)7-4-8(13)11(15)9(14)5-7/h4-5,10,16-17H,6,15H2,1-3H3",277.19012,-5.58921848927,-0.34830572863999976,5.2409127606300006,1.6782627069005018
000002785,O=C(CC(=O)C(=O)NC(C(=O)N(C)C)Cc1ccccc1)NCCc1ccccn1,C22H26N4O4,"InChI=1S/C22H26N4O4/c1-26(2)22(30)18(14-16-8-4-3-5-9-16)25-21(29)19(27)15-20(28)24-13-11-17-10-6-7-12-23-17/h3-10,12,18H,11,13-15H2,1-2H3,(H,24,28)(H,25,29)",410.46624,-6.495357611435,-0.9442350612350001,5.5511225502,3.64027714026762
000002786,CCCC1CN(C(C1)C(=O)NC(C1OC(SC)C(C(C1O)O)O)C(Cl)C)C,C18H33ClN2O5S,"InChI=1S/C18H33ClN2O5S/c1-5-6-10-7-11(21(3)8-10)17(25)20-12(9(2)19)16-14(23)13(22)15(24)18(26-16)27-4/h9-16,18,22-24H,5-8H2,1-4H3,(H,20,25)",424.98302,-5.888543724820001,-0.34286345162999954,5.545680273190001,4.374376834120947
000002787,CCC(C(=O)O)(Oc1ccc(cc1)C1(CCCCC1)c1ccc(cc1)OC(C(=O)O)(CC)C)C,C28H36O6,"InChI=1S/C28H36O6/c1-5-26(3,24(29)30)33-22-14-10-20(11-15-22)28(18-8-7-9-19-28)21-12-16-23(17-13-21)34-27(4,6-2)25(31)32/h10-17H,5-9,18-19H2,1-4H3,(H,29,30)(H,31,32)",468.58184,-6.1361673287750005,-0.6721212107349999,5.464046118040001,6.08270131290449
000002789,Clc1ccc2c(c1)N(C(=O)CC(=O)N2C)c1ccccc1,C16H13ClN2O2,"InChI=1S/C16H13ClN2O2/c1-18-13-8-7-11(17)9-14(13)19(16(21)10-15(18)20)12-5-3-2-4-6-12/h2-9H,10H2,1H3",300.73962,-6.087186835685,-1.03947490891,5.047711926775,3.841223219523307
000002790,Clc1ccc(cc1)CN=C(SCCCc1cnc[nH]1)N,C14H17ClN4S,"InChI=1S/C14H17ClN4S/c15-12-5-3-11(4-6-12)8-18-14(16)20-7-1-2-13-9-17-10-19-13/h3-6,9-10H,1-2,7-8H2,(H2,16,18)(H,17,19)",308.82958,-5.81779412369,-0.31293092807499967,5.504863195615,5.292817842033296
000002791,CCC(=O)OC1(C(C)CC2C1(C)CC(O)C1(C2CCC2=CC(=O)C=CC12C)F)C(=O)CCl,C25H32ClFO5,"InChI=1S/C25H32ClFO5/c1-5-21(31)32-25(20(30)13-26)14(2)10-18-17-7-6-15-11-16(28)8-9-22(15,3)24(17,27)19(29)12-23(18,25)4/h8-9,11,14,17-19,29H,5-7,10,12-13H2,1-4H3",466.9699832,-6.685837306785,-1.81772052134,4.868116785445,6.319167438644192
000002792,CCCC(=O)OC1(C(C)CC2C1(C)CC(=O)C1(C2CCC2=CC(=O)C=CC12C)F)C(=O)CCl,C26H32ClFO5,"InChI=1S/C26H32ClFO5/c1-5-6-22(32)33-26(21(31)14-27)15(2)11-19-18-8-7-16-12-17(29)9-10-23(16,3)25(18,28)20(30)13-24(19,26)4/h9-10,12,15,18-19H,5-8,11,13-14H2,1-4H3",478.9806832,-6.304877916085,-1.46397251569,4.840905400395,9.236914873219792
000002793,Clc1ccc2c(c1)N(CCCN1CCC(CC1)(C(=O)N)N1CCCCC1)c1ccccc1CC2,C28H37ClN4O,"InChI=1S/C28H37ClN4O/c29-24-12-11-23-10-9-22-7-2-3-8-25(22)33(26(23)21-24)18-6-15-31-19-13-28(14-20-31,27(30)34)32-16-4-1-5-17-32/h2-3,7-8,11-12,21H,1,4-6,9-10,13-20H2,(H2,30,34)",481.07258,-5.16472088249,-0.20136424937000008,4.96335663312,2.861833638201564
000002794,Clc1ccc(cc1)Nc1cc2nc3ccccc3n(c2cc1=NC(C)C)c1ccc(cc1)Cl,C27H22Cl2N4,"InChI=1S/C27H22Cl2N4/c1-17(2)30-24-16-27-25(15-23(24)31-20-11-7-18(28)8-12-20)32-22-5-3-4-6-26(22)33(27)21-13-9-19(29)10-14-21/h3-17,31H,1-2H3",473.39638,-5.08852900435,-2.1224880339,2.96604097045,4.332319119852669
000002795,CN(CCC(c1ccccc1Cl)(c1ccccc1)O)C,C17H20ClNO,"InChI=1S/C17H20ClNO/c1-19(2)13-12-17(20,14-8-4-3-5-9-14)15-10-6-7-11-16(15)18/h3-11,20H,12-13H2,1-2H3",289.7998,-6.005552680535001,-0.33470003611499966,5.670852644420001,2.2269856500143868
000002796,CCOC(=O)C(Oc1ccc(cc1)Cl)(C)C,C12H15ClO3,"InChI=1S/C12H15ClO3/c1-4-15-11(14)12(2,3)16-10-7-5-9(13)6-8-10/h5-8H,4H2,1-3H3",242.6987,-5.809630708175,-0.3020463740550001,5.50758433412,4.294844262764018
000002797,OC(=O)C(Oc1ccc(cc1)Cl)(C)C,C10H11ClO3,"InChI=1S/C10H11ClO3/c1-10(2,9(12)13)14-8-5-3-7(11)4-6-8/h3-6H,1-2H3,(H,12,13)",214.64554,-6.55250152004,-0.7809667509349998,5.771534769105,3.421826131330901