mol_id,SMILES,formula,inchi,mass,HOMO(eV),LUMO(eV),GAP(eV),dipole_moment
000005677,OCC(NC1CC(O)(CO)C(C(C1O)O)O)CO,C10H21NO7,"InChI=1S/C10H21NO7/c12-2-5(3-13)11-6-1-10(18,4-14)9(17)8(16)7(6)15/h5-9,11-18H,1-4H2",267.27624,-5.85589006276,0.8272261055200003,6.683116168280001,2.6015098283408427
000005678,COC(=O)C(=C1OC(=O)C(C1=O)c1ccccc1)c1ccccc1,C19H14O5,"InChI=1S/C19H14O5/c1-23-18(21)15(13-10-6-3-7-11-13)17-16(20)14(19(22)24-17)12-8-4-2-5-9-12/h2-11,14H,1H3",322.31146,-6.479030780405,-2.402765299915,4.07626548049,2.0952204030416466
000005679,NCCCCNS(=O)(=O)c1cccc2c1cccc2,C14H18N2O2S,"InChI=1S/C14H18N2O2S/c15-10-3-4-11-16-19(17,18)14-9-5-7-12-6-1-2-8-13(12)14/h1-2,5-9,16H,3-4,10-11,15H2",278.36992,-6.174263267845,-1.7224806736649994,4.451782594180001,3.7562960752259666
000005680,NCCCCNS(=O)(=O)c1cccc2c1cccc2Cl,C14H17ClN2O2S,"InChI=1S/C14H17ClN2O2S/c15-13-7-3-6-12-11(13)5-4-8-14(12)20(18,19)17-10-2-1-9-16/h3-8,17H,1-2,9-10,16H2",312.81498,-6.2232437609349995,-1.961940862105,4.2613028988299995,3.127488638916055
000005681,NCCCCCCNS(=O)(=O)c1cccc2c1cccc2Cl,C16H21ClN2O2S,"InChI=1S/C16H21ClN2O2S/c17-15-9-5-8-14-13(15)7-6-10-16(14)22(20,21)19-12-4-2-1-3-11-18/h5-10,19H,1-4,11-12,18H2",340.86814,-6.16065757532,-1.9537774465900002,4.20688012873,3.2166943999654367
000005684,COc1ccccc1N1CCN(CC1)CCN(C(=O)C1CCCCC1)c1ccccn1,C25H34N4O2,"InChI=1S/C25H34N4O2/c1-31-23-12-6-5-11-22(23)28-18-15-27(16-19-28)17-20-29(24-13-7-8-14-26-24)25(30)21-9-3-2-4-10-21/h5-8,11-14,21H,2-4,9-10,15-20H2,1H3",422.56306,-5.2844509767100005,-0.8272261055200003,4.45722487119,5.276259387758055
000005685,COc1cccc(c1OCCNCC1COc2c(O1)cccc2)OC,C19H23NO5,"InChI=1S/C19H23NO5/c1-21-17-8-5-9-18(22-2)19(17)23-11-10-20-12-14-13-24-15-6-3-4-7-16(15)25-14/h3-9,14,20H,10-13H2,1-2H3",345.38962,-5.600103043290001,0.13605692525000013,5.736159968540001,0.7370283607982802
000005687,COc1cc2c(ncnc2cc1OC)Nc1cccc(c1)O,C16H15N3O3,"InChI=1S/C16H15N3O3/c1-21-14-7-12-13(8-15(14)22-2)17-9-18-16(12)19-10-4-3-5-11(20)6-10/h3-9,20H,1-2H3,(H,17,18,19)",297.3086,-5.35520057784,-1.1292724795750004,4.225928098264999,5.108406553541036
000005689,O=C(c1c(C)n2c3c1cccc3OCC2CN1CCOCC1)c1cccc2c1cccc2,C27H26N2O3,"InChI=1S/C27H26N2O3/c1-18-25(27(30)22-9-4-7-19-6-2-3-8-21(19)22)23-10-5-11-24-26(23)29(18)20(17-32-24)16-28-12-14-31-15-13-28/h2-11,20H,12-17H2,1H3",426.50694,-5.385133101395,-1.1592050031300003,4.225928098264999,5.610142912104201
000005690,O=C(c1c(C)n2c3c1cccc3OCC2CN1CCOCC1)c1ccc2c(c1)cccc2,C27H26N2O3,"InChI=1S/C27H26N2O3/c1-18-25(27(30)21-10-9-19-5-2-3-6-20(19)15-21)23-7-4-8-24-26(23)29(18)22(17-32-24)16-28-11-13-31-14-12-28/h2-10,15,22H,11-14,16-17H2,1H3",426.50694,-5.38241196289,-1.1265513410699999,4.25586062182,5.672180416912089
000005691,COCC1OC(=O)c2c3C1(C)C1=C(C(=O)c3oc2)C2C(CC1OC(=O)C)(C)C(=O)CC2,C23H24O8,"InChI=1S/C23H24O8/c1-10(24)30-13-7-22(2)12(5-6-14(22)25)16-18(13)23(3)15(9-28-4)31-21(27)11-8-29-20(17(11)23)19(16)26/h8,12-13,15H,5-7,9H2,1-4H3",428.43186,-6.386512071235,-2.337457975795,4.04905409544,1.8397606097949264
000005694,OC(=O)CSc1nc(cc(n1)Cl)Nc1cccc(c1C)C,C14H14ClN3O2S,"InChI=1S/C14H14ClN3O2S/c1-8-4-3-5-10(9(8)2)16-12-6-11(15)17-14(18-12)21-7-13(19)20/h3-6H,7H2,1-2H3,(H,19,20)(H,16,17,18)",323.79786,-6.34025271665,-1.4367611306399999,4.90349158601,8.034347826095718
000005697,CCCn1c2nc([nH]c2c(=O)n(c1=O)CCC)c1ccc(cc1)OCC(=O)NCCN,C21H28N6O4,"InChI=1S/C21H28N6O4/c1-3-11-26-19-17(20(29)27(12-4-2)21(26)30)24-18(25-19)14-5-7-15(8-6-14)31-13-16(28)23-10-9-22/h5-8H,3-4,9-13,22H2,1-2H3,(H,23,28)(H,24,25)",428.48482,-5.635477843855,-1.46397251569,4.171505328165,3.185016234155487
000005699,OC(=O)c1cc(=O)c2c([nH]1)c(O)ccc2,C10H7NO4,"InChI=1S/C10H7NO4/c12-7-3-1-2-5-8(13)4-6(10(14)15)11-9(5)7/h1-4,12H,(H,11,13)(H,14,15)",205.16688,-6.043648619605,-2.070786402305,3.9728622173000003,4.2215238532295425
000005701,C1CCCC2CCCN3C2OC(CCCCCCC2C4OC(CC1)CCN4CCC2)CC3,C28H50N2O2,"InChI=1S/C28H50N2O2/c1-3-7-15-25-17-21-30-20-10-14-24(28(30)31-25)12-6-2-4-8-16-26-18-22-29-19-9-13-23(11-5-1)27(29)32-26/h23-28H,1-22H2",446.7088,-5.499420918605,1.7224806736649994,7.221901592269999,0.8781297608975567
000005703,O=c1c2cccnc2sn1c1ccccc1,C12H8N2OS,InChI=1S/C12H8N2OS/c15-12-10-7-4-8-13-11(10)16-14(12)9-5-2-1-3-6-9/h1-8H,228.26972,-5.89398600183,-1.8013936903099994,4.092592311520001,1.1874325646103026
000005706,ClCCN(Cc1ccccc1C)CC,C12H18ClN,"InChI=1S/C12H18ClN/c1-3-14(9-8-13)10-12-7-5-4-6-11(12)2/h4-7H,3,8-10H2,1-2H3",211.73102,-6.1143982207350005,-0.11156667870499959,6.002831542030001,2.4790072226415556
000005707,Cc1cccc(c1NC1=NCCCS1)C,C12H16N2S,"InChI=1S/C12H16N2S/c1-9-5-3-6-10(2)11(9)14-12-13-7-4-8-15-12/h3,5-6H,4,7-8H2,1-2H3,(H,13,14)",220.33384,-5.95929332595,0.016326831029999767,5.97562015698,1.5516597327397526
000005709,Cc1cc(cc(c1CC1=NCCN1)C)C(C)(C)C,C16H24N2,"InChI=1S/C16H24N2/c1-11-8-13(16(3,4)5)9-12(2)14(11)10-15-17-6-7-18-15/h8-9H,6-7,10H2,1-5H3,(H,17,18)",244.37516,-5.8477266472450005,-0.05714390860500007,5.79058273864,2.241179157975551
000005710,CC(=O)OC1CC2C(C3C41CC(C(=C)C4=O)CC3)(C)CCCC2(C)C(=O)O,C22H30O5,"InChI=1S/C22H30O5/c1-12-14-6-7-15-20(3)8-5-9-21(4,19(25)26)16(20)10-17(27-13(2)23)22(15,11-14)18(12)24/h14-17H,1,5-11H2,2-4H3,(H,25,26)",374.4706,-6.7484234924,-1.8585375989150004,4.889885893484999,6.363357956828297
000005711,CC(C1CCC(CC1)C(=O)Nc1ccncc1)N,C14H21N3O,"InChI=1S/C14H21N3O/c1-10(15)11-2-4-12(5-3-11)14(18)17-13-6-8-16-9-7-13/h6-12H,2-5,15H2,1H3,(H,16,17,18)",247.33604,-6.13344619027,-0.7945724434599999,5.33887374681,3.308174724315661
000005712,OCc1ccc(o1)c1nn(c2c1cccc2)Cc1ccccc1,C19H16N2O2,"InChI=1S/C19H16N2O2/c22-13-15-10-11-18(23-15)19-16-8-4-5-9-17(16)21(20-19)12-14-6-2-1-3-7-14/h1-11,22H,12-13H2",304.34254,-5.145672912955,-1.0857342634950005,4.059938649459999,3.178077401009768
000005714,COc1cc(CCN(CCc2ccc(c(c2)OC)OC)C)ccc1OC,C21H29NO4,"InChI=1S/C21H29NO4/c1-22(12-10-16-6-8-18(23-2)20(14-16)25-4)13-11-17-7-9-19(24-3)21(15-17)26-5/h6-9,14-15H,10-13H2,1-5H3",359.45926,-5.175605436510001,0.44626671482000013,5.621872151330001,0.5896272993289914
000005716,O=C(NC(C(=O)NC(C(=O)NC(C(=O)OC(F)F)CC(=O)O)C)C(C)C)OCc1ccccc1,C21H27F2N3O8,"InChI=1S/C21H27F2N3O8/c1-11(2)16(26-21(32)33-10-13-7-5-4-6-8-13)18(30)24-12(3)17(29)25-14(9-15(27)28)19(31)34-20(22)23/h4-8,11-12,14,16,20H,9-10H2,1-3H3,(H,24,30)(H,25,29)(H,26,32)(H,27,28)",487.4511864,-6.443655979840001,-0.7619187814000004,5.6817371984400005,4.58082066792982
000005718,Nc1ccn(c(=O)n1)C1CCC(O1)CO,C9H13N3O3,"InChI=1S/C9H13N3O3/c10-7-3-4-12(9(14)11-7)8-2-1-6(5-13)15-8/h3-4,6,8,13H,1-2,5H2,(H2,10,11,14)",211.21782,-6.051812035119999,-0.9006968451550001,5.151115189964999,3.538837231806091
000005719,CCN(c1cccc(c1)c1ccnc2n1ncc2C#N)C(=O)C,C17H15N5O,"InChI=1S/C17H15N5O/c1-3-21(12(2)23)15-6-4-5-13(9-15)16-7-8-19-17-14(10-18)11-20-22(16)17/h4-9,11H,3H2,1-2H3",305.3339,-6.5851551821,-2.3755539148650007,4.209601267235,5.9407661952520066
000005720,OC(=O)C(c1ccc2c(c1)CC(=O)c1c(S2)cccc1)C,C17H14O3S,"InChI=1S/C17H14O3S/c1-10(17(19)20)11-6-7-15-12(8-11)9-14(18)13-4-2-3-5-16(13)21-15/h2-8,10H,9H2,1H3,(H,19,20)",298.35626,-6.255897422995,-1.7769034437649998,4.47899397923,4.342232222673034
000005721,OCC(C(C1OC(=CC(C1NC(=O)C)N=C(N)N)C(=O)O)O)O,C12H20N4O7,"InChI=1S/C12H20N4O7/c1-4(18)15-8-5(16-12(13)14)2-7(11(21)22)23-10(8)9(20)6(19)3-17/h2,5-6,8-10,17,19-20H,3H2,1H3,(H,15,18)(H,21,22)(H4,13,14,16)",332.3098,-6.41100231778,-1.13199361808,5.2790086997,7.043445903495035
000005722,CCCOc1ccccc1c1nc(=O)c2c(n1)[nH][nH]n2,C13H13N5O2,"InChI=1S/C13H13N5O2/c1-2-7-20-9-6-4-3-5-8(9)11-14-12-10(13(19)15-11)16-18-17-12/h3-6H,2,7H2,1H3,(H2,14,15,16,17,18,19)",271.27462,-5.831399816215,-2.745628751545,3.08577106467,5.401259959138608
000005723,COc1cc(ccc1OC(F)F)c1ccc(=O)[nH]n1,C12H10F2N2O3,"InChI=1S/C12H10F2N2O3/c1-18-10-6-7(2-4-9(10)19-12(13)14)8-3-5-11(17)16-15-8/h2-6,12H,1H3,(H,16,17)",268.2162064,-6.032764065585001,-1.88302784546,4.149736220125001,3.554210870314956
000005725,CC1=CCC(C)(C)C=CC(=O)C(=CCC1)C,C15H22O,"InChI=1S/C15H22O/c1-12-6-5-7-13(2)14(16)9-11-15(3,4)10-8-12/h7-9,11H,5-6,10H2,1-4H3",218.33458,-6.310320193095,-1.2299546042599996,5.080365588835001,3.6555938698299077
000005726,OCC1OC(CC1N=[N+]=[N-])n1cc(C)c(=O)[nH]c1=O,C10H13N5O4,"InChI=1S/C10H13N5O4/c1-5-3-15(10(18)12-9(5)17)8-2-6(13-14-11)7(4-16)19-8/h3,6-8,16H,2,4H2,1H3,(H,12,17,18)",267.24132,-6.408281179275,-1.4340399921350002,4.97424118714,2.0782121800610254
000005729,O=C(C(C(F)(F)F)(O)C)Nc1ccccc1,C10H10F3NO2,"InChI=1S/C10H10F3NO2/c1-9(16,10(11,12)13)8(15)14-7-5-3-2-4-6-7/h2-6,16H,1H3,(H,14,15)",233.1871096,-6.032764065585001,-0.5360642854849997,5.496699780100001,3.5208917223808514
000005730,Oc1ccc(cc1)C(=O)Nc1cc(ccc1C)NC(=O)c1cccc(c1)N(C)C,C23H23N3O3,"InChI=1S/C23H23N3O3/c1-15-7-10-18(24-23(29)17-5-4-6-19(13-17)26(2)3)14-21(15)25-22(28)16-8-11-20(27)12-9-16/h4-14,27H,1-3H3,(H,24,29)(H,25,28)",389.44702,-5.52391116515,-0.5523911165150004,4.971520048635,5.490534111063786
000005731,CN(CCc1c[nH]c2c1cc(CC1COC(=O)N1)cc2)C,C16H21N3O2,"InChI=1S/C16H21N3O2/c1-19(2)6-5-12-9-17-15-4-3-11(8-14(12)15)7-13-10-21-16(20)18-13/h3-4,8-9,13,17H,5-7,10H2,1-2H3,(H,18,20)",287.35684,-5.58377621226,-0.5605545320300003,5.02322168023,6.977766403265876
000005732,Cc1ccc(cc1)c1nc2n(c1CC(=O)N(C)C)cc(cc2)C,C19H21N3O,"InChI=1S/C19H21N3O/c1-13-5-8-15(9-6-13)19-16(11-18(23)21(3)4)22-12-14(2)7-10-17(22)20-19/h5-10,12H,11H2,1-4H3",307.38954,-5.319825777275001,-0.7673610584099997,4.552464718865001,2.2208308180084315
000005733,OC(=O)Cc1cc(c(n1C)C(=O)c1ccc(cc1)Cl)C,C15H14ClNO3,"InChI=1S/C15H14ClNO3/c1-9-7-12(8-13(18)19)17(2)14(9)15(20)10-3-5-11(16)6-4-10/h3-7H,8H2,1-2H3,(H,18,19)",291.72956,-6.11711935924,-1.7415286432000006,4.37559071604,2.249735937354871
000005734,NS(=O)(=O)Cc1noc2c1cccc2,C8H8N2O3S,"InChI=1S/C8H8N2O3S/c9-14(11,12)5-7-6-3-1-2-4-8(6)13-10-7/h1-4H,5H2,(H2,9,11,12)",212.22572,-6.704885276320001,-1.341521282965,5.363363993355001,3.2954714682218076
000005735,CN1CCN(CC1)C(=O)OC1c2nccnc2C(=O)N1c1ccc(cn1)Cl,C17H17ClN6O3,"InChI=1S/C17H17ClN6O3/c1-22-6-8-23(9-7-22)17(26)27-16-14-13(19-4-5-20-14)15(25)24(16)12-3-2-11(18)10-21-12/h2-5,10,16H,6-9H2,1H3",388.80828,-5.836842093225,-2.3129677292500004,3.5238743639749996,5.559731938855326
000005736,CN(CCOC1=Cc2ccccc2Sc2c1cc(Cl)cc2)C,C18H18ClNOS,"InChI=1S/C18H18ClNOS/c1-20(2)9-10-21-16-11-13-5-3-4-6-17(13)22-18-8-7-14(19)12-15(16)18/h3-8,11-12H,9-10H2,1-2H3",331.85962,-5.755207938075,-1.297983066885,4.45722487119,1.394164910754463
000005737,COC(=O)CC(C(=O)CF)NC(=O)C(NC(=O)C(C(C)C)NC(=O)OCc1ccccc1)C,C22H30FN3O7,"InChI=1S/C22H30FN3O7/c1-13(2)19(26-22(31)33-12-15-8-6-5-7-9-15)21(30)24-14(3)20(29)25-16(17(27)11-23)10-18(28)32-4/h5-9,13-14,16,19H,10-12H2,1-4H3,(H,24,30)(H,25,29)(H,26,31)",467.4879032,-6.67767389127,-1.1646472801399996,5.513026611130001,2.8837423849016055
000005740,CCOc1cc2c(ncnc2cc1OCC)Nc1cccc(c1)c1csc(n1)CO,C22H22N4O3S,"InChI=1S/C22H22N4O3S/c1-3-28-19-9-16-17(10-20(19)29-4-2)23-13-24-22(16)25-15-7-5-6-14(8-15)18-12-30-21(11-27)26-18/h5-10,12-13,27H,3-4,11H2,1-2H3,(H,23,24,25)",422.50008,-5.42595017897,-1.15376272612,4.27218745285,5.656349699322435
000005741,COc1cc2c(cc1OC)CC(C2=O)CC1CCN(CC1)Cc1ccccc1.Cl,C24H30ClNO3,"InChI=1S/C24H29NO3.ClH/c1-27-22-14-19-13-20(24(26)21(19)15-23(22)28-2)12-17-8-10-25(11-9-17)16-18-6-4-3-5-7-18;/h3-7,14-15,17,20H,8-13,16H2,1-2H3;1H",415.9529,-5.63819898236,-1.608192856455,4.0300061259049995,6.3136503173138285
000005742,NC(=N)N.Cl,CH6ClN3,"InChI=1S/CH5N3.ClH/c2-1(3)4;/h(H5,2,3,4);1H",95.53144,-6.6912795837950005,0.6993325957850001,7.390612179580001,1.9134809922371845
000005744,CC(=O)OCC(=O)[C@@]1(O)CC[C@@H]2[C@]1(C)C[C@H](O)[C@H]1[C@H]2CCC2=CC(=O)CC[C@]12C,C23H32O6,"InChI=1S/C23H32O6/c1-13(24)29-12-19(27)23(28)9-7-17-16-5-4-14-10-15(25)6-8-21(14,2)20(16)18(26)11-22(17,23)3/h10,16-18,20,26,28H,4-9,11-12H2,1-3H3/t16-,17-,18-,20+,21-,22-,23-/m0/s1",404.49658,-6.16609985233,-1.4802993467199999,4.6858005056100005,6.888064092129298
000005745,CC(=O)OCC(=O)[C@@]1(O)CC[C@@H]2[C@]1(C)CC(=O)[C@H]1[C@H]2CCC2=CC(=O)CC[C@]12C,C23H30O6,"InChI=1S/C23H30O6/c1-13(24)29-12-19(27)23(28)9-7-17-16-5-4-14-10-15(25)6-8-21(14,2)20(16)18(26)11-22(17,23)3/h10,16-17,20,28H,4-9,11-12H2,1-3H3/t16-,17-,20+,21-,22-,23-/m0/s1",402.4807,-6.11167708223,-1.0775708479799997,5.03410623425,6.4337798756367945
000005750,CCOC(=O)C1(CCN(CC1)C)c1ccccc1.Cl,C15H22ClNO2,"InChI=1S/C15H21NO2.ClH/c1-3-18-14(17)15(9-11-16(2)12-10-15)13-7-5-4-6-8-13;/h4-8H,3,9-12H2,1-2H3;1H",283.79368,-5.651804674885,-0.5251797314650002,5.1266249434199995,3.0709641332838777
000005752,CCC(c1ccccc1)(COC(=O)N)O,C11H15NO3,"InChI=1S/C11H15NO3/c1-2-11(14,8-15-10(12)13)9-6-4-3-5-7-9/h3-7,14H,2,8H2,1H3,(H2,12,13)",209.2417,-6.37290637871,0.11700895571499981,6.489915334425,3.122140597176719
000005753,OCC(=O)[C@H]1CC[C@@H]2[C@]1(C)C[C@H](O)[C@H]1[C@H]2CCC2=CC(=O)CC[C@]12C,C21H30O4,"InChI=1S/C21H30O4/c1-20-8-7-13(23)9-12(20)3-4-14-15-5-6-16(18(25)11-22)21(15,2)10-17(24)19(14)20/h9,14-17,19,22,24H,3-8,10-11H2,1-2H3/t14-,15-,16+,17-,19+,20-,21-/m0/s1",346.4605,-6.17698440635,-1.0231480778800002,5.15383632847,4.638074758046058
000005754,OCC(=O)[C@@]1(O)CC[C@@H]2[C@]1(C)C[C@H](O)[C@H]1[C@H]2CCC2=CC(=O)CC[C@]12C,C21H30O5,"InChI=1S/C21H30O5/c1-19-7-5-13(23)9-12(19)3-4-14-15-6-8-21(26,17(25)11-22)20(15,2)10-16(24)18(14)19/h9,14-16,18,22,24,26H,3-8,10-11H2,1-2H3/t14-,15-,16-,18+,19-,20-,21-/m0/s1",362.4599,-6.228686037945,-1.074849709475,5.15383632847,3.985810452819351
000005756,Oc1ccc2c(c1)CC[C@@H]1[C@@H]2CC[C@]2([C@H]1C[C@H]([C@@H]2O)O)C,C18H24O3,"InChI=1S/C18H24O3/c1-18-7-6-13-12-5-3-11(19)8-10(12)2-4-14(13)15(18)9-16(20)17(18)21/h3,5,8,13-17,19-21H,2,4,6-7,9H2,1H3/t13-,14-,15+,16-,17+,18+/m1/s1",288.38136,-5.640920120865,-0.010884554020000436,5.630035566845,2.005866196099331
000005758,OC(=O)c1c(Cl)cccc1Cl,C7H4Cl2O2,"InChI=1S/C7H4Cl2O2/c8-4-2-1-3-5(9)6(4)7(10)11/h1-3H,(H,10,11)",191.01146,-7.20013248423,-1.608192856455,5.591939627775,5.522069902194828
000005759,Clc1ccc(c(c1Cl)C(=O)O)Cl,C7H3Cl3O2,"InChI=1S/C7H3Cl3O2/c8-3-1-2-4(9)6(10)5(3)7(11)12/h1-2H,(H,11,12)",225.45652,-7.110334913565,-1.8340473523699998,5.276287561195,4.568520958756126
000005760,COC(=O)[C@H]1[C@H](CC2N(C1CC2)C)OC(=O)c1ccccc1,C17H21NO4,"InChI=1S/C17H21NO4/c1-18-12-8-9-13(18)15(17(20)21-2)14(10-12)22-16(19)11-6-4-3-5-7-11/h3-7,12-15H,8-10H2,1-2H3/t12?,13?,14-,15+/m0/s1",303.35294,-6.00827381904,-0.9415139227300005,5.06675989631,2.2195738492174573
000005761,CCN(C(=O)[C@H]1CN(C)[C@H]2C(=C1)c1cccc3c1c(C2)c[nH]3)CC,C20H25N3O,"InChI=1S/C20H25N3O/c1-4-23(5-2)20(24)14-9-16-15-7-6-8-17-19(15)13(11-21-17)10-18(16)22(3)12-14/h6-9,11,14,18,21H,4-5,10,12H2,1-3H3/t14-,18-/m1/s1",323.432,-5.11029811239,-0.7401496733599995,4.37014843903,3.690263608851541
000005762,Clc1cc(Cl)c(c(c1Cl)C(=O)O)Cl,C7H2Cl4O2,"InChI=1S/C7H2Cl4O2/c8-2-1-3(9)6(11)4(5(2)10)7(12)13/h1H,(H,12,13)",259.90158,-7.17292109918,-2.03541160174,5.13750949744,4.036081434512688
000005763,CCN(CCOC(=O)C(c1ccccc1)c1ccccc1)CC.Cl,C20H26ClNO2,"InChI=1S/C20H25NO2.ClH/c1-3-21(4-2)15-16-23-20(22)19(17-11-7-5-8-12-17)18-13-9-6-10-14-18;/h5-14,19H,3-4,15-16H2,1-2H3;1H",347.87894,-5.956572187445,-0.3047675125599998,5.651804674885001,2.6546055858763653
000005764,OC(=O)c1c(Cl)cc(cc1Cl)Cl,C7H3Cl3O2,"InChI=1S/C7H3Cl3O2/c8-3-1-4(9)6(7(11)12)5(10)2-3/h1-2H,(H,11,12)",225.45652,-7.4205447031350005,-1.83948962938,5.581055073755,4.1511533156914355
000005765,OC(=O)c1cccc(c1Cl)Cl,C7H4Cl2O2,"InChI=1S/C7H4Cl2O2/c8-5-3-1-2-4(6(5)9)7(10)11/h1-3H,(H,10,11)",191.01146,-7.23278614629,-1.6000294409400002,5.632756705349999,4.3606139474555645
000005766,O=C1C=CC(=O)c2c1cncc2,C9H5NO2,InChI=1S/C9H5NO2/c11-8-1-2-9(12)7-5-10-4-3-6(7)8/h1-5H,159.1415,-7.148430852635,-3.42319223929,3.725238613345,1.4966674029476288
000005769,C=CC1CN2CCC1C[C@@H]2C(c1ccnc2c1cc(OC)cc2)O,C20H24N2O2,"InChI=1S/C20H24N2O2/c1-3-13-12-22-9-7-14(13)10-19(22)20(23)16-6-8-21-18-5-4-15(24-2)11-17(16)18/h3-6,8,11,13-14,19-20,23H,1,7,9-10,12H2,2H3/t13?,14?,19-,20?/m1/s1",324.41676,-5.820515262195,-1.1673684186450002,4.65314684355,3.8857317117245755
000005773,O=C(N[C@@H]1C(=O)N2[C@@H]1SCC(=C2C(=O)[O-])C[n+]1ccccc1)Cc1cccs1,C19H17N3O4S2,"InChI=1S/C19H17N3O4S2/c23-14(9-13-5-4-8-27-13)20-15-17(24)22-16(19(25)26)12(11-28-18(15)22)10-21-6-2-1-3-7-21/h1-8,15,18H,9-11H2,(H-,20,23,25,26)/t15-,18-/m1/s1",415.48598,-5.25723959166,-2.903454784835,2.3537848068250002,14.940679855295743
000005775,Cc1ccc(cc1)N(c1cccc(c1)O)CC1=NCCN1,C17H19N3O,"InChI=1S/C17H19N3O/c1-13-5-7-14(8-6-13)20(12-17-18-9-10-19-17)15-3-2-4-16(21)11-15/h2-8,11,21H,9-10,12H2,1H3,(H,18,19)",281.35226,-5.1619997439850005,-0.29388295854000024,4.868116785445,2.9204348938694045
000005778,CSc1ncnc2c1[nH]cn2,C6H6N4S,"InChI=1S/C6H6N4S/c1-11-6-4-5(8-2-7-4)9-3-10-6/h2-3H,1H3,(H,7,8,9,10)",166.20364,-6.299435639075001,-1.3741749450249996,4.925260694050001,4.9760683504350105
000005779,OC[C@H]1OC([C@@H]([C@@H]1O)O)O,C5H10O5,"InChI=1S/C5H10O5/c6-1-2-3(7)4(8)5(9)10-2/h2-9H,1H2/t2-,3-,4-,5?/m1/s1",150.1299,-6.94434546476,1.1319936180799992,8.076339082839999,0.8943780678471493
000005780,OC[C@H]([C@H]([C@@H]([C@H](CO)O)O)O)O,C6H14O6,"InChI=1S/C6H14O6/c7-1-3(9)5(11)6(12)4(10)2-8/h3-12H,1-2H2/t3-,4+,5-,6-/m1/s1",182.17176,-6.72121210735,1.009542385355,7.7307544927050005,3.134009677018404
000005781,O=C1NC(=O)C(=O)C(=O)N1,C4H2N2O4,"InChI=1S/C4H2N2O4/c7-1-2(8)5-4(10)6-3(1)9/h(H2,5,6,8,9,10)",142.06968,-7.567486182405,-3.6463255967,3.921160585705,2.3998469041159685
000005782,OC(=O)c1cc(Cl)c(c(c1Cl)Cl)Cl,C7H2Cl4O2,"InChI=1S/C7H2Cl4O2/c8-3-1-2(7(12)13)4(9)6(11)5(3)10/h1H,(H,12,13)",259.90158,-7.347073963500001,-1.9646620006099997,5.382411962890001,2.997209472606978
000005783,OC(=O)c1ccc(c(c1Cl)Cl)Cl,C7H3Cl3O2,"InChI=1S/C7H3Cl3O2/c8-4-2-1-3(7(11)12)5(9)6(4)10/h1-2H,(H,11,12)",225.45652,-7.3416316864899995,-1.7850668592799996,5.55656482721,3.3180694233656416
000005784,Clc1ccc(c(c1)C(=O)O)Cl,C7H4Cl2O2,"InChI=1S/C7H4Cl2O2/c8-4-1-2-6(9)5(3-4)7(10)11/h1-3H,(H,10,11)",191.01146,-7.104892636555,-1.6435676570200002,5.461324979535,4.494008627245947
000005786,Clc1cc(C(=O)O)c(cc1Cl)Cl,C7H3Cl3O2,"InChI=1S/C7H3Cl3O2/c8-4-2-6(10)5(9)1-3(4)7(11)12/h1-2H,(H,11,12)",225.45652,-7.224622730775001,-1.8204416598449997,5.404181070930001,3.5139858412339966
000005787,Clc1ccc(c(c1)Cl)C(=O)O,C7H4Cl2O2,"InChI=1S/C7H4Cl2O2/c8-4-1-2-5(7(10)11)6(9)3-4/h1-3H,(H,10,11)",191.01146,-7.268160946855001,-1.6217985489800002,5.646362397875,3.6641273723952335
000005788,Cc1ccc(c(c1)O)C(=O)O,C8H8O3,"InChI=1S/C8H8O3/c1-5-2-3-6(8(10)11)7(9)4-5/h2-4,9H,1H3,(H,10,11)",152.14732,-6.604203151635,-1.2326757427650001,5.37152740887,7.124750422068832
000005789,OC[C@H]1O[C@H](C[C@@H]1O)n1cc(C)c(=O)[nH]c1=O,C10H14N2O5,"InChI=1S/C10H14N2O5/c1-5-3-12(10(16)11-9(5)15)8-2-6(14)7(4-13)17-8/h3,6-8,13-14H,2,4H2,1H3,(H,11,15,16)/t6-,7+,8+/m0/s1",242.22856,-6.24773400748,-1.0476383244249998,5.200095683055,5.111120392331802
000005790,OC[C@H]1O[C@H](C[C@@H]1O)n1cc(F)c(=O)[nH]c1=O,C9H11FN2O5,"InChI=1S/C9H11FN2O5/c10-4-2-12(9(16)11-8(4)15)7-1-5(14)6(3-13)17-7/h2,5-7,13-14H,1,3H2,(H,11,15,16)/t5-,6+,7+/m0/s1",246.1924432,-6.506242165455,-1.3524058369850005,5.15383632847,4.007963873616378
000005791,CCC(C(c1ccc(c(c1)O)O)O)NC(C)C.Cl,C13H22ClNO3,"InChI=1S/C13H21NO3.ClH/c1-4-10(14-8(2)3)13(17)9-5-6-11(15)12(16)7-9;/h5-8,10,13-17H,4H2,1-3H3;1H",275.77168,-5.537516857675,0.10884554019999992,5.6463623978749995,3.0064944399599343
000005792,OC(c1nc2c([nH]1)cccc2)c1ccccc1,C14H12N2O,"InChI=1S/C14H12N2O/c17-13(10-6-2-1-3-7-10)14-15-11-8-4-5-9-12(11)16-14/h1-9,13,17H,(H,15,16)",224.25788,-5.95929332595,-0.68572690326,5.27356642269,2.901951637065132
000005793,OC[C@H]1OC(O)[C@@H]([C@H]([C@@H]1O)O)O,C6H12O6,"InChI=1S/C6H12O6/c7-1-2-3(8)4(9)5(10)6(11)12-2/h2-11H,1H2/t2-,3-,4+,5-,6?/m1/s1",180.15588,-6.72121210735,1.1455993106050002,7.866811417955001,2.6266955467029294
000005794,CCCCOCCOCCOCc1cc2OCOc2cc1CCC,C19H30O5,"InChI=1S/C19H30O5/c1-3-5-7-20-8-9-21-10-11-22-14-17-13-19-18(23-15-24-19)12-16(17)6-4-2/h12-13H,3-11,14-15H2,1-2H3",338.4385,-5.333431469800001,0.13605692525000013,5.469488395050001,0.8836922161476811