mol_id,SMILES,formula,inchi,mass,HOMO(eV),LUMO(eV),GAP(eV),dipole_moment
000004886,CCCCOc1ccc(cc1)OCCCN1CCOCC1,C17H27NO3,"InChI=1S/C17H27NO3/c1-2-3-12-20-16-5-7-17(8-6-16)21-13-4-9-18-10-14-19-15-11-18/h5-8H,2-4,9-15H2,1H3",293.40118,-5.0613176193000005,0.18775855684499998,5.249076176145,1.584448133285845
000004887,O=C(c1ccc(cc1)OCCCCc1ccccc1)Nc1cccc2c1oc(cc2=O)c1nn[nH]n1,C27H23N5O4,"InChI=1S/C27H23N5O4/c33-23-17-24(26-29-31-32-30-26)36-25-21(23)10-6-11-22(25)28-27(34)19-12-14-20(15-13-19)35-16-5-4-9-18-7-2-1-3-8-18/h1-3,6-8,10-15,17H,4-5,9,16H2,(H,28,34)(H,29,30,31,32)",481.50262,-5.93752421791,-2.22589129709,3.71163292082,6.596522705128361
000004888,OC(=O)C(c1ccc2c(c1)Cc1c(O2)nccc1)C,C15H13NO3,"InChI=1S/C15H13NO3/c1-9(15(17)18)10-4-5-13-12(7-10)8-11-3-2-6-16-14(11)19-13/h2-7,9H,8H2,1H3,(H,17,18)",255.26862,-6.12256163625,-1.15376272612,4.96879891013,5.986880017378417
000004889,CCC(C(=O)OC1CC(O)C=C2C1C(CCC(CC(CC(=O)O)O)O)C(C=C2)C)C,C23H36O7,"InChI=1S/C23H36O7/c1-4-13(2)23(29)30-20-11-17(25)9-15-6-5-14(3)19(22(15)20)8-7-16(24)10-18(26)12-21(27)28/h5-6,9,13-14,16-20,22,24-26H,4,7-8,10-12H2,1-3H3,(H,27,28)",424.52774,-5.02866395724,-1.205464357715,3.823199599525,3.5234502252791935
000004890,Clc1ccc2c(c1)C(=NCC(=O)N2CC1CC1)c1ccccc1,C19H17ClN2O,"InChI=1S/C19H17ClN2O/c20-15-8-9-17-16(10-15)19(14-4-2-1-3-5-14)21-11-18(23)22(17)12-13-6-7-13/h1-5,8-10,13H,6-7,11-12H2",324.80408,-6.13888846728,-1.5347221168200003,4.60416635046,2.9051826578022597
000004891,O=C(N1CC(=O)N2C(C1)c1ccccc1CC2)C1CCCCC1,C19H24N2O2,"InChI=1S/C19H24N2O2/c22-18-13-20(19(23)15-7-2-1-3-8-15)12-17-16-9-5-4-6-14(16)10-11-21(17)18/h4-6,9,15,17H,1-3,7-8,10-13H2",312.40606,-6.250455145985,-0.43810329930500025,5.8123518466799995,5.58809651442063
000004893,COc1cc2nc(nc(c2cc1OC)N)N1CCN(CC1)C(=O)c1ccco1,C19H21N5O4,"InChI=1S/C19H21N5O4/c1-26-15-10-12-13(11-16(15)27-2)21-19(22-17(12)20)24-7-5-23(6-8-24)18(25)14-4-3-9-28-14/h3-4,9-11H,5-8H2,1-2H3,(H2,20,21,22)",383.40114,-4.96879891013,-0.7619187814000004,4.20688012873,3.9105212251547745
000004894,OCC(=O)C1(O)CCC2C1(C)CC(O)C1C2CCC2=CC(=O)C=CC12C,C21H28O5,"InChI=1S/C21H28O5/c1-19-7-5-13(23)9-12(19)3-4-14-15-6-8-21(26,17(25)11-22)20(15,2)10-16(24)18(14)19/h5,7,9,14-16,18,22,24,26H,3-4,6,8,10-11H2,1-2H3",360.44402,-4.91981841704,-1.5700969173850003,3.3497214996549998,6.4424727266555815
000004895,CC(=O)OCC(=O)C1(O)CCC2C1(C)CC(O)C1C2CCC2=CC(=O)C=CC12C,C23H30O6,"InChI=1S/C23H30O6/c1-13(24)29-12-19(27)23(28)9-7-17-16-5-4-14-10-15(25)6-8-21(14,2)20(16)18(26)11-22(17,23)3/h6,8,10,16-18,20,26,28H,4-5,7,9,11-12H2,1-3H3",402.4807,-6.12256163625,-1.2571659893099998,4.865395646940001,8.183070451998931
000004896,O=C1C=CC2(C(=C1)CCC1C2C(O)CC2(C1CCC2(O)C(=O)COP(=O)(O)O)C)C,C21H29O8P,"InChI=1S/C21H29O8P/c1-19-7-5-13(22)9-12(19)3-4-14-15-6-8-21(25,17(24)11-29-30(26,27)28)20(15,2)10-16(23)18(14)19/h5,7,9,14-16,18,23,25H,3-4,6,8,10-11H2,1-2H3,(H2,26,27,28)",440.423921,-6.23684945346,-1.341521282965,4.895328170495,6.8583776922135895
000004897,OC(=O)CCC(=O)OCC(=O)C1(O)CCC2C1(C)CC(O)C1C2CCC2=CC(=O)C=CC12C,C25H32O8,"InChI=1S/C25H32O8/c1-23-9-7-15(26)11-14(23)3-4-16-17-8-10-25(32,24(17,2)12-18(27)22(16)23)19(28)13-33-21(31)6-5-20(29)30/h7,9,11,16-18,22,27,32H,3-6,8,10,12-13H2,1-2H3,(H,29,30)",460.51678,-6.1878689603699994,-1.4966261777499996,4.69124278262,9.327632516341165
000004898,O=C(CC(C)(C)C)OCC(=O)C1(O)CCC2C1(C)CC(O)C1C2CCC2=CC(=O)C=CC12C,C27H38O6,"InChI=1S/C27H38O6/c1-24(2,3)14-22(31)33-15-21(30)27(32)11-9-19-18-7-6-16-12-17(28)8-10-25(16,4)23(18)20(29)13-26(19,27)5/h8,10,12,18-20,23,29,32H,6-7,9,11,13-15H2,1-5H3",458.58702,-6.147051882795,-1.1973009422,4.949750940595,7.829549152798837
000004899,CCCCC(=O)OC1(CCC2C1(C)CC(O)C1C2CCC2=CC(=O)C=CC12C)C(=O)COC(=O)C,C28H38O7,"InChI=1S/C28H38O7/c1-5-6-7-24(33)35-28(23(32)16-34-17(2)29)13-11-21-20-9-8-18-14-19(30)10-12-26(18,3)25(20)22(31)15-27(21,28)4/h10,12,14,20-22,25,31H,5-9,11,13,15-16H2,1-4H3",486.59712,-5.907591694355,-1.0068212468500004,4.900770447505,7.314471218829014
000004900,OCC(=O)C1(O)CCC2C1(C)CC(=O)C1C2CCC2=CC(=O)C=CC12C,C21H26O5,"InChI=1S/C21H26O5/c1-19-7-5-13(23)9-12(19)3-4-14-15-6-8-21(26,17(25)11-22)20(15,2)10-16(24)18(14)19/h5,7,9,14-15,18,22,26H,3-4,6,8,10-11H2,1-2H3",358.42814,-4.87628020096,-1.6027505794449999,3.2735296215150003,9.342891904042025
000004901,OC1CCC2(C(C1)CCC1C2CCC2(C1CCC2C(O)C)C)C,C21H36O2,"InChI=1S/C21H36O2/c1-13(22)17-6-7-18-16-5-4-14-12-15(23)8-10-20(14,2)19(16)9-11-21(17,18)3/h13-19,22-23H,4-12H2,1-3H3",320.50934,-6.79740398549,1.7143172581500004,8.51172124364,1.0796454022951238
000004903,CC(=O)C1CCC2C1(C)CCC1C2CC=C2C1(C)CCC(C2)OS(=O)(=O)O,C21H32O5S,"InChI=1S/C21H32O5S/c1-13(22)17-6-7-18-16-5-4-14-12-15(26-27(23,24)25)8-10-20(14,2)19(16)9-11-21(17,18)3/h4,15-19H,5-12H2,1-3H3,(H,23,24,25)",396.54078,-6.35113727067,-0.4136130527599997,5.93752421791,3.4812599158761475
000004904,OC(c1ccccc1)(c1ccccc1)CCN1CCCCC1,C20H25NO,"InChI=1S/C20H25NO/c22-20(18-10-4-1-5-11-18,19-12-6-2-7-13-19)14-17-21-15-8-3-9-16-21/h1-2,4-7,10-13,22H,3,8-9,14-17H2",295.4186,-5.940245356415,-0.04898049309000019,5.8912648633249995,3.3415811292192203
000004906,CCCNC(C(=O)Nc1ccccc1C)C,C13H20N2O,"InChI=1S/C13H20N2O/c1-4-9-14-11(3)13(16)15-12-8-6-5-7-10(12)2/h5-8,11,14H,4,9H2,1-3H3,(H,15,16)",220.3107,-5.657246951895,-0.165989448805,5.49125750309,3.7427382897396124
000004907,OCC1(CO)N(C)CCC(C1=O)C,C9H17NO3,"InChI=1S/C9H17NO3/c1-7-3-4-10(2)9(5-11,6-12)8(7)13/h7,11-12H,3-6H2,1-2H3",187.23618,-5.85589006276,-0.7374285348549998,5.1184615279050005,3.197440323022464
000004908,NCCCC(Nc1cc(OC)cc2c1nccc2)C,C15H21N3O,"InChI=1S/C15H21N3O/c1-11(5-3-7-16)18-14-10-13(19-2)9-12-6-4-8-17-15(12)14/h4,6,8-11,18H,3,5,7,16H2,1-2H3",259.34674,-4.732059860195,-0.94151392273,3.790545937465,1.9032760277019727
000004909,CCC1(C(=O)NCNC1=O)c1ccccc1,C12H14N2O2,"InChI=1S/C12H14N2O2/c1-2-12(9-6-4-3-5-7-9)10(15)13-8-14-11(12)16/h3-7H,2,8H2,1H3,(H,13,15)(H,14,16)",218.25176,-6.636856813695,-0.4081707757500004,6.228686037945,4.718389159868122
000004910,CCCC(c1ccccc1)(c1ccccc1)C(=O)OCCN(CC)CC,C23H31NO2,"InChI=1S/C23H31NO2/c1-4-17-23(20-13-9-7-10-14-20,21-15-11-8-12-16-21)22(25)26-19-18-24(5-2)6-3/h7-16H,4-6,17-19H2,1-3H3",353.49774,-5.7388811070450005,-0.4272187452849998,5.311662361760001,1.1454450109848138
000004911,CCCN(S(=O)(=O)c1ccc(cc1)C(=O)O)CCC,C13H19NO4S,"InChI=1S/C13H19NO4S/c1-3-9-14(10-4-2)19(17,18)12-7-5-11(6-8-12)13(15)16/h5-8H,3-4,9-10H2,1-2H3,(H,15,16)",285.35926,-6.729375522865,-1.8204416598450006,4.90893386302,5.575673091465639
000004913,CCN(CCNC(=O)c1ccc(cc1)N)CC,C13H21N3O,"InChI=1S/C13H21N3O/c1-3-16(4-2)10-9-15-13(17)11-5-7-12(14)8-6-11/h5-8H,3-4,9-10,14H2,1-2H3,(H,15,17)",235.32534,-5.442277010000001,-0.1795951413300001,5.2626818686700005,4.455371720836434
000004914,CCN(CCOC(=O)c1ccc(cc1)N)CC,C13H20N2O2,"InChI=1S/C13H20N2O2/c1-3-15(4-2)9-10-17-13(16)11-5-7-12(14)8-6-11/h5-8H,3-4,9-10,14H2,1-2H3",236.3101,-5.54023799618,-0.7074960113,4.83274198488,3.92725403206388
000004915,CNNCc1ccc(cc1)C(=O)NC(C)C,C12H19N3O,"InChI=1S/C12H19N3O/c1-9(2)15-12(16)11-6-4-10(5-7-11)8-14-13-3/h4-7,9,13-14H,8H2,1-3H3,(H,15,16)",221.29876,-5.08852900435,-0.5279008699699999,4.56062813438,3.253276255843792
000004916,CCC(C(c1ccc(c2c1ccc(=O)[nH]2)O)O)NC(C)C,C16H22N2O3,"InChI=1S/C16H22N2O3/c1-4-12(17-9(2)3)16(21)11-5-7-13(19)15-10(11)6-8-14(20)18-15/h5-9,12,16-17,19,21H,4H2,1-3H3,(H,18,20)",290.35748,-5.640920120865,-1.406828607085,4.23409151378,5.721573342136409
000004917,CN1CCN(CC1)CCCN1c2ccccc2Sc2c1cc(Cl)cc2,C20H24ClN3S,"InChI=1S/C20H24ClN3S/c1-22-11-13-23(14-12-22)9-4-10-24-17-5-2-3-6-19(17)25-20-8-7-16(21)15-18(20)24/h2-3,5-8,15H,4,9-14H2,1H3",373.94266,-4.78376149179,-0.6775634877450001,4.106198004045,2.306483894730462
000004919,OC(c1ccccc1)(C1CCCCC1)CCN1CCCC1,C19H29NO,"InChI=1S/C19H29NO/c21-19(17-9-3-1-4-10-17,18-11-5-2-6-12-18)13-16-20-14-7-8-15-20/h1,3-4,9-10,18,21H,2,5-8,11-16H2",287.43966,-5.989225849505,0.1523837562799999,6.141609605785,2.9737303661297205
000004922,CCCN(C(=O)C(NC(=O)c1ccccc1)CCC(=O)O)CCC,C18H26N2O4,"InChI=1S/C18H26N2O4/c1-3-12-20(13-4-2)18(24)15(10-11-16(21)22)19-17(23)14-8-6-5-7-9-14/h5-9,15H,3-4,10-13H2,1-2H3,(H,19,23)(H,21,22)",334.41004,-6.38379093273,-0.9932155543250003,5.390575378405,5.239354883397955
000004923,CC(N=C(N=C(Nc1ccc(cc1)Cl)N)N)C,C11H16ClN5,"InChI=1S/C11H16ClN5/c1-7(2)15-10(13)17-11(14)16-9-5-3-8(12)4-6-9/h3-7H,1-2H3,(H5,13,14,15,16,17)",253.73124,-5.6164298743200005,-0.5605545320300003,5.05587534229,2.2075323647344334
000004926,CN(CCCN1c2ccccc2Sc2c1cccc2)C,C17H20N2S,"InChI=1S/C17H20N2S/c1-18(2)12-7-13-19-14-8-3-5-10-16(14)20-17-11-6-4-9-15(17)19/h3-6,8-11H,7,12-13H2,1-2H3",284.4191,-4.612329765975001,-0.28844068153,4.323889084445001,3.6971737437525167
000004927,CN(C(CN1c2ccccc2Sc2c1cccc2)C)C,C17H20N2S,"InChI=1S/C17H20N2S/c1-13(18(2)3)12-19-14-8-4-6-10-16(14)20-17-11-7-5-9-15(17)19/h4-11,13H,12H2,1-3H3",284.4191,-4.64770456654,-0.4353821607999997,4.21232240574,2.1481822662914336
000004928,COc1nc(NC(C)C)nc(n1)NC(C)C,C10H19N5O,"InChI=1S/C10H19N5O/c1-6(2)11-8-13-9(12-7(3)4)15-10(14-8)16-5/h6-7H,1-5H3,(H2,11,12,13,14,15)",225.29076,-5.972899018475,0.2204122189050004,6.1933112373800006,2.114147867633908
000004929,CSc1nc(NC(C)C)nc(n1)NC(C)C,C10H19N5S,"InChI=1S/C10H19N5S/c1-6(2)11-8-13-9(12-7(3)4)15-10(14-8)16-5/h6-7H,1-5H3,(H2,11,12,13,14,15)",241.35636,-5.9348030794049995,-0.20136424937000008,5.733438830034999,2.6205477586796624
000004930,CC(NCC(c1ccc2c(c1)cccc2)O)C,C15H19NO,"InChI=1S/C15H19NO/c1-11(2)16-10-15(17)14-8-7-12-5-3-4-6-13(12)9-14/h3-9,11,15-17H,10H2,1-2H3",229.31746,-5.68717947545,-0.7972935819650004,4.889885893484999,2.081143416176069
000004931,ClCC(=O)N(c1ccccc1)C(C)C,C11H14ClNO,"InChI=1S/C11H14ClNO/c1-9(2)13(11(14)8-12)10-6-4-3-5-7-10/h3-7,9H,8H2,1-2H3",211.68796,-6.6559047832300005,-0.7074960113,5.9484087719300005,5.515755417374305
000004932,CCCNCC(COc1ccccc1C(=O)CCc1ccccc1)O,C21H27NO3,"InChI=1S/C21H27NO3/c1-2-14-22-15-18(23)16-25-21-11-7-6-10-19(21)20(24)13-12-17-8-4-3-5-9-17/h3-11,18,22-23H,2,12-16H2,1H3",341.44398,-5.842284370235,-1.15376272612,4.688521644115,2.7169662387554614
000004933,CCC(=O)Nc1ccc(c(c1)Cl)Cl,C9H9Cl2NO,"InChI=1S/C9H9Cl2NO/c1-2-9(13)12-6-3-4-7(10)8(11)5-6/h3-5H,2H2,1H3,(H,12,13)",218.07986,-6.081744558675,-0.7156594268149998,5.36608513186,5.83883810821511
000004935,CCCOc1ccc(cc1N)C(=O)OCCN(CC)CC,C16H26N2O3,"InChI=1S/C16H26N2O3/c1-4-10-20-15-8-7-13(12-14(15)17)16(19)21-11-9-18(5-2)6-3/h7-8,12H,4-6,9-11,17H2,1-3H3",294.38924,-5.3279891927900005,-0.6966114572800004,4.63137773551,3.4838048987823647
000004936,C#CCOS(=O)OC1CCCCC1Oc1ccc(cc1)C(C)(C)C,C19H26O4S,"InChI=1S/C19H26O4S/c1-5-14-21-24(20)23-18-9-7-6-8-17(18)22-16-12-10-15(11-13-16)19(2,3)4/h1,10-13,17-18H,6-9,14H2,2-4H3",350.47234,-5.69806402947,-0.3238154820950001,5.374248547375,1.6364506614090142
000004937,CC(Nc1nc(NC(C)C)nc(n1)Cl)C,C9H16ClN5,"InChI=1S/C9H16ClN5/c1-5(2)11-8-13-7(10)14-9(15-8)12-6(3)4/h5-6H,1-4H3,(H2,11,12,13,14,15)",229.70984,-6.31848360861,-0.5932081940899998,5.72527541452,3.7068591285485883
000004938,CCCn1cnc2c1c(=O)n(CCCCC(=O)C)c(=O)n2C,C15H22N4O3,"InChI=1S/C15H22N4O3/c1-4-8-18-10-16-13-12(18)14(21)19(15(22)17(13)3)9-6-5-7-11(2)20/h10H,4-9H2,1-3H3",306.36018,-5.80146729266,-0.9578407537600002,4.8436265389,3.001304527129828
000004940,CCC(=O)c1ccc2c(c1)N(CC(N(C)C)C)c1c(S2)cccc1,C20H24N2OS,"InChI=1S/C20H24N2OS/c1-5-18(23)15-10-11-20-17(12-15)22(13-14(2)21(3)4)16-8-6-7-9-19(16)24-20/h6-12,14H,5,13H2,1-4H3",340.48236,-4.80008832282,-1.216348911735,3.583739411085,0.7683140035486793
000004941,O=CC(NC(=O)C(NC(=O)C(NC(=O)CC)CC(C)C)CC(C)C)CCCN=C(N)N,C21H40N6O4,"InChI=1S/C21H40N6O4/c1-6-18(29)26-16(10-13(2)3)20(31)27-17(11-14(4)5)19(30)25-15(12-28)8-7-9-24-21(22)23/h12-17H,6-11H2,1-5H3,(H,25,30)(H,26,29)(H,27,31)(H4,22,23,24)",440.5801,-5.77969818462,-1.1156667870500003,4.66403139757,1.4684111765037067
000004942,CCCOC(c1ccccc1)(c1ccccc1)C(=O)OC1CCN(CC1)C,C23H29NO3,"InChI=1S/C23H29NO3/c1-3-18-26-23(19-10-6-4-7-11-19,20-12-8-5-9-13-20)22(25)27-21-14-16-24(2)17-15-21/h4-13,21H,3,14-18H2,1-2H3",367.48126,-5.6817371984400005,-0.3455845901350001,5.336152608305,1.7549732853228848
000004943,CC(c1cccc(c1O)C(C)C)C,C12H18O,"InChI=1S/C12H18O/c1-8(2)10-6-5-7-11(9(3)4)12(10)13/h5-9,13H,1-4H3",178.27072,-5.657246951895,0.13605692525000013,5.793303877145,1.6738273579291265
000004944,CNC(=O)Oc1ccccc1OC(C)C,C11H15NO3,"InChI=1S/C11H15NO3/c1-8(2)14-9-6-4-5-7-10(9)15-11(13)12-3/h4-8H,1-3H3,(H,12,13)",209.2417,-5.6164298743200005,0.15510489478500045,5.771534769105001,3.585723139734299
000004945,CN(CC(C(c1ccccc1)(Cc1ccccc1)O)C)C,C19H25NO,"InChI=1S/C19H25NO/c1-16(15-20(2)3)19(21,18-12-8-5-9-13-18)14-17-10-6-4-7-11-17/h4-13,16,21H,14-15H2,1-3H3",283.4079,-5.5946607662800005,-0.1795951413300001,5.41506562495,1.5533492730554839
000004946,OC(COc1cccc2c1cccc2)CNC(C)C,C16H21NO2,"InChI=1S/C16H21NO2/c1-12(2)17-10-14(18)11-19-16-9-5-7-13-6-3-4-8-15(13)16/h3-9,12,14,17-18H,10-11H2,1-2H3",259.34344,-5.504863195615,-0.8190626900049995,4.6858005056100005,1.6059607157427604
000004947,CCCOC(=O)c1cc(O)c(c(c1)O)O,C10H12O5,"InChI=1S/C10H12O5/c1-2-3-15-10(14)6-4-7(11)9(13)8(12)5-6/h4-5,11-13H,2-3H2,1H3",212.19928,-5.839563231730001,-0.8789277371150002,4.960635494615,1.9804723259606531
000004948,O=C(C(c1ccc(cc1)O)N)NC1C(=O)N2C1SCC(=C2C(=O)O)CSc1n[nH]nc1,C18H18N6O5S2,"InChI=1S/C18H18N6O5S2/c19-12(8-1-3-10(25)4-2-8)15(26)21-13-16(27)24-14(18(28)29)9(7-31-17(13)24)6-30-11-5-20-23-22-11/h1-5,12-13,17,25H,6-7,19H2,(H,21,26)(H,28,29)(H,20,22,23)",462.50272,-5.940245356415,-1.6354042415050003,4.304841114909999,6.079652339879148
000004952,CCCCCC(C=CC1C=CC(=O)C1CCCCCCC(=O)O)O,C20H32O4,"InChI=1S/C20H32O4/c1-2-3-6-9-17(21)14-12-16-13-15-19(22)18(16)10-7-4-5-8-11-20(23)24/h12-18,21H,2-11H2,1H3,(H,23,24)",336.46568,-6.45998281087,-1.2952619283800004,5.164720882489999,6.42873447768758
000004953,CCCCCC(C=CC1C=CC(=O)C1CC=CCCCC(=O)O)O,C20H30O4,"InChI=1S/C20H30O4/c1-2-3-6-9-17(21)14-12-16-13-15-19(22)18(16)10-7-4-5-8-11-20(23)24/h4,7,12-18,21H,2-3,5-6,8-11H2,1H3,(H,23,24)",334.4498,-6.5470592430300005,-1.9075180920049997,4.639541151025001,7.781245270163575
000004954,CCCCCC(C=CC1=C(CCCCCCC(=O)O)C(=O)CC1)O,C20H32O4,"InChI=1S/C20H32O4/c1-2-3-6-9-17(21)14-12-16-13-15-19(22)18(16)10-7-4-5-8-11-20(23)24/h12,14,17,21H,2-11,13,15H2,1H3,(H,23,24)",336.46568,-6.386512071235,-1.4258765766200003,4.9606354946149995,3.9778015866688223
000004955,CCCCCC(C=CC1=C(CC=CCCCC(=O)O)C(=O)CC1)O,C20H30O4,"InChI=1S/C20H30O4/c1-2-3-6-9-17(21)14-12-16-13-15-19(22)18(16)10-7-4-5-8-11-20(23)24/h4,7,12,14,17,21H,2-3,5-6,8-11,13,15H2,1H3,(H,23,24)",334.4498,-6.315762470105001,-1.6027505794449999,4.713011890660001,2.5129302014540715
000004956,CCCCCC(C=CC1C(=O)CC(C1CC=CCCCC(=O)O)O)O,C20H32O5,"InChI=1S/C20H32O5/c1-2-3-6-9-15(21)12-13-17-16(18(22)14-19(17)23)10-7-4-5-8-11-20(24)25/h4,7,12-13,15-18,21-22H,2-3,5-6,8-11,14H2,1H3,(H,24,25)",352.46508,-6.838221063065001,-0.9687253077799998,5.869495755285001,6.288900990296317
000004957,CCCCCC(C=CC1C(O)CC(C1CCCCCCC(=O)O)O)O,C20H36O5,"InChI=1S/C20H36O5/c1-2-3-6-9-15(21)12-13-17-16(18(22)14-19(17)23)10-7-4-5-8-11-20(24)25/h12-13,15-19,21-23H,2-11,14H2,1H3,(H,24,25)",356.49684,-6.571549489575,0.06530732411999995,6.636856813695,5.456114058016841
000004958,CCCCCC(C=CC1C2OOC(C1CC=CCCCC(=O)O)C2)OO,C20H32O6,"InChI=1S/C20H32O6/c1-2-3-6-9-15(24-23)12-13-17-16(18-14-19(17)26-25-18)10-7-4-5-8-11-20(21)22/h4,7,12-13,15-19,23H,2-3,5-6,8-11,14H2,1H3,(H,21,22)",368.46448,-6.051812035119999,0.054422770100000406,6.10623480522,3.8855995100532428
000004960,CCCCCC(C=CC1C(O)CC2C1CC(=CCCCCC(=O)O)O2)O,C21H34O5,"InChI=1S/C21H34O5/c1-2-3-5-8-15(22)11-12-17-18-13-16(26-20(18)14-19(17)23)9-6-4-7-10-21(24)25/h9,11-12,15,17-20,22-23H,2-8,10,13-14H2,1H3,(H,24,25)",366.49166,-5.65452581339,-0.10612440169500026,5.548401411695,3.935069927769264
000004961,CCCCCC(C=CC1C(CC=CCCCC(=O)O)C=CC1=O)O,C20H30O4,"InChI=1S/C20H30O4/c1-2-3-6-10-17(21)13-14-18-16(12-15-19(18)22)9-7-4-5-8-11-20(23)24/h4,7,12-18,21H,2-3,5-6,8-11H2,1H3,(H,23,24)",334.4498,-6.36202182469,-1.2952619283800004,5.06675989631,5.924834169574031
000004962,OCC1=CC2C3C(C3(C)C)(OC(=O)C)CC(C2(C2C(C1)(O)C(=O)C(=C2)C)O)C,C22H30O6,"InChI=1S/C22H30O6/c1-11-6-16-20(26,18(11)25)9-14(10-23)7-15-17-19(4,5)21(17,28-13(3)24)8-12(2)22(15,16)27/h6-7,12,15-17,23,26-27H,8-10H2,1-5H3",390.47,-6.065417727644999,-1.4231554381149998,4.64226228953,5.145420533862708
000004963,OCCC(=C(N(Cc1cnc(nc1N)C)C=O)C)SSCCC,C15H24N4O2S2,"InChI=1S/C15H24N4O2S2/c1-4-7-22-23-14(5-6-20)11(2)19(10-21)9-13-8-17-12(3)18-15(13)16/h8,10,20H,4-7,9H2,1-3H3,(H2,16,17,18)",356.50666,-6.06269658914,-1.493905039245,4.568791549895,1.365668855136559
000004968,O=C1CCC(N1)C(=O)NC(C(=O)N1CCCC1C(=O)O)Cc1[nH]cnc1,C16H21N5O5,"InChI=1S/C16H21N5O5/c22-13-4-3-10(19-13)14(23)20-11(6-9-7-17-8-18-9)15(24)21-5-1-2-12(21)16(25)26/h7-8,10-12H,1-6H2,(H,17,18)(H,19,22)(H,20,23)(H,25,26)",363.36844,-6.0953502512,-0.7782456124300001,5.31710463877,6.239004636094286
000004969,CC(Cc1ccc2c(c1)OCO2)NCC(c1ccc(c(c1)O)O)O,C18H21NO5,"InChI=1S/C18H21NO5/c1-11(6-12-2-5-17-18(7-12)24-10-23-17)19-9-16(22)13-3-4-14(20)15(21)8-13/h2-5,7-8,11,16,19-22H,6,9-10H2,1H3",331.36304,-5.352479439335,0.10612440169500026,5.45860384103,2.279374233584955
000004970,CN1CCc2cc3OCOc3cc2C(=O)Cc2c(C1)c1OCOc1cc2,C20H19NO5,"InChI=1S/C20H19NO5/c1-21-5-4-13-7-18-19(25-10-24-18)8-14(13)16(22)6-12-2-3-17-20(15(12)9-21)26-11-23-17/h2-3,7-8H,4-6,9-11H2,1H3",353.36856,-5.325268054285001,-0.8680431830949997,4.457224871190001,2.4559937930670754
000004976,CNCCCC1c2ccccc2C=Cc2c1cccc2,C19H21N,"InChI=1S/C19H21N/c1-20-14-6-11-19-17-9-4-2-7-15(17)12-13-16-8-3-5-10-18(16)19/h2-5,7-10,12-13,19-20H,6,11,14H2,1H3",263.37674,-5.76337135359,-0.9578407537600002,4.80553059983,0.9964205142057243
000004977,CC(Cn1cnc2c1c(=O)n(C)c(=O)n2C)O,C10H14N4O3,"InChI=1S/C10H14N4O3/c1-6(15)4-14-5-11-8-7(14)9(16)13(3)10(17)12(8)2/h5-6,15H,4H2,1-3H3",238.24316,-5.92663966389,-1.1265513410699999,4.80008832282,3.5433239775467893
000004980,CN(CCc1c[nH]c2c1c(O)ccc2)C,C12H16N2O,"InChI=1S/C12H16N2O/c1-14(2)7-6-9-8-13-10-4-3-5-11(15)12(9)10/h3-5,8,13,15H,6-7H2,1-2H3",204.26824,-4.5851183809250005,0.39728622172999994,4.982404602655,4.367707514833153
000004981,COc1c2oc(=O)ccc2c(c2c1occ2)CC(C(O)(C)C)O,C17H18O6,"InChI=1S/C17H18O6/c1-17(2,20)12(18)8-11-9-4-5-13(19)23-15(9)16(21-3)14-10(11)6-7-22-14/h4-7,12,18,20H,8H2,1-3H3",318.32122,-5.49125750309,-1.749692058715,3.741565444375,6.763678801485106
000004982,CCCCCCCCCCCCCC=CC(C(COC1OC(CO)C(C(C1O)O)O)N)O,C24H47NO7,"InChI=1S/C24H47NO7/c1-2-3-4-5-6-7-8-9-10-11-12-13-14-15-19(27)18(25)17-31-24-23(30)22(29)21(28)20(16-26)32-24/h14-15,18-24,26-30H,2-13,16-17,25H2,1H3",461.63248,-6.25317628449,0.1034032631899997,6.35657954768,1.7969038094511347
000004983,ON1C(=[N+](C(C1(C)C)(C)C)[O-])c1ccccc1,C13H18N2O2,"InChI=1S/C13H18N2O2/c1-12(2)13(3,4)15(17)11(14(12)16)10-8-6-5-7-9-10/h5-9,16H,1-4H3",234.29422,-5.05587534229,-1.140157033595,3.9157183086950003,2.628844427776585
000004984,OCC1OC(C(C1NC(=O)C(Cc1ccc(cc1)OC)N)O)n1cnc2c1ncnc2N(C)C,C22H29N7O5,"InChI=1S/C22H29N7O5/c1-28(2)19-17-20(25-10-24-19)29(11-26-17)22-18(31)16(15(9-30)34-22)27-21(32)14(23)8-12-4-6-13(33-3)7-5-12/h4-7,10-11,14-16,18,22,30-31H,8-9,23H2,1-3H3,(H,27,32)",471.50956,-5.57833393525,-0.7238228423299997,4.85451109292,3.043367414495496
000004986,CCC(C(C)C)Nc1nc(Nc2cccc(c2)Cl)c2c(n1)n(cn2)C(C)C,C20H27ClN6,"InChI=1S/C20H27ClN6/c1-6-16(12(2)3)24-20-25-18(23-15-9-7-8-14(21)10-15)17-19(26-20)27(11-22-17)13(4)5/h7-13,16H,6H2,1-5H3,(H2,23,24,25,26)",386.92158,-5.156557466975,-0.7183805653200004,4.438176901655,5.318366145397758
000004987,OCC(C(C)C)Nc1nc(Nc2cccc(c2)Cl)c2c(n1)n(cn2)C(C)C,C19H25ClN6O,"InChI=1S/C19H25ClN6O/c1-11(2)15(9-27)23-19-24-17(22-14-7-5-6-13(20)8-14)16-18(25-19)26(10-21-16)12(3)4/h5-8,10-12,15,27H,9H2,1-4H3,(H2,22,23,24,25)",388.8944,-5.14295177445,-0.7102171498049996,4.432734624645001,6.382336965961842
000004988,O=C1C=C2OC3(C)CCC4C(C3C=C2C=C1O)(C)CCCC4(C)C,C21H28O3,"InChI=1S/C21H28O3/c1-19(2)7-5-8-20(3)17(19)6-9-21(4)18(20)11-13-10-14(22)15(23)12-16(13)24-21/h10-12,17-18,22H,5-9H2,1-4H3",328.44522,-4.51164764129,-2.772840136595,1.7388075046949996,7.667237630851088