mol_id,SMILES,formula,inchi,mass,HOMO(eV),LUMO(eV),GAP(eV),dipole_moment
000001755,O=C(CCC(=O)O)CCCCCC(=O)O,C10H16O5,"InChI=1S/C10H16O5/c11-8(6-7-10(14)15)4-2-1-3-5-9(12)13/h1-7H2,(H,12,13)(H,14,15)",216.23104,-7.072238974495001,-0.7020537342899997,6.370185240205001,2.9804270283199354
000001756,N#Cc1[n+]([O-])onc1c1ccccc1,C9H5N3O2,InChI=1S/C9H5N3O2/c10-6-8-9(11-14-12(8)13)7-4-2-1-3-5-7/h1-5H,187.1549,-7.18924793021,-2.5388222251649992,4.650425705045,4.206267621988525
000001757,OP(=O)(Oc1ccc(cc1)Cc1ccc(cc1)OP(=O)(O)O)O,C13H14O8P2,"InChI=1S/C13H14O8P2/c14-22(15,16)20-12-5-1-10(2-6-12)9-11-3-7-13(8-4-11)21-23(17,18)19/h1-8H,9H2,(H2,14,15,16)(H2,17,18,19)",360.192982,-6.342973855155,-0.5605545320300003,5.782419323125,4.288294605187591
000001758,NCCCCNC(=O)c1ccc(cc1)S(=O)(=O)N,C11H17N3O3S,"InChI=1S/C11H17N3O3S/c12-7-1-2-8-14-11(15)9-3-5-10(6-4-9)18(13,16)17/h3-6H,1-2,7-8,12H2,(H,14,15)(H2,13,16,17)",271.33598,-6.288551085055,-1.4367611306399999,4.8517899544150005,2.1928742826815224
000001759,SCNCCCCNC(=O)c1ccc(cc1)S(=O)(=O)N,C12H19N3O3S2,"InChI=1S/C12H19N3O3S2/c13-20(17,18)11-5-3-10(4-6-11)12(16)15-8-2-1-7-14-9-19/h3-6,14,19H,1-2,7-9H2,(H,15,16)(H2,13,17,18)",317.42756,-6.19875351439,-1.4231554381149998,4.775598076275,1.0427561503108003
000001761,O=C(C1OC(C(C1O)O)n1cnc2c1ncnc2N)NC1CC1,C13H16N6O4,"InChI=1S/C13H16N6O4/c14-10-6-11(16-3-15-10)19(4-17-6)13-8(21)7(20)9(23-13)12(22)18-5-1-2-5/h3-5,7-9,13,20-21H,1-2H2,(H,18,22)(H2,14,15,16)",320.30394,-6.103513666715,-0.9904944158199998,5.113019250895,2.4714433382023957
000001763,NCCSCC1OC(C(C1O)O)n1cnc2c1ncnc2N,C12H18N6O3S,"InChI=1S/C12H18N6O3S/c13-1-2-22-3-6-8(19)9(20)12(21-6)18-5-17-7-10(14)15-4-16-11(7)18/h4-6,8-9,12,19-20H,1-3,13H2,(H2,14,15,16)",326.37472,-6.038206342595,-0.8598797675799998,5.178326575015,1.8168935161835984
000001765,NC(=O)CCC(C(=O)NS(=O)(=O)OCC1OC(C(C1O)O)n1cnc2c1ncnc2N)N,C15H22N8O8S,"InChI=1S/C15H22N8O8S/c16-6(1-2-8(17)24)14(27)22-32(28,29)30-3-7-10(25)11(26)15(31-7)23-5-21-9-12(18)19-4-20-13(9)23/h4-7,10-11,15,25-26H,1-3,16H2,(H2,17,24)(H,22,27)(H2,18,19,20)",474.44898,-6.22596489944,-1.009542385355,5.216422514085,4.310073059846897
000001766,CCC=CCC=CCC=CCC=CC=CC(CCCC(=O)O)O,C20H30O3,"InChI=1S/C20H30O3/c1-2-3-4-5-6-7-8-9-10-11-12-13-14-16-19(21)17-15-18-20(22)23/h3-4,6-7,9-10,12-14,16,19,21H,2,5,8,11,15,17-18H2,1H3,(H,22,23)",318.4504,-6.190590098875,-0.9632830307699995,5.2273070681050005,7.5405207135982995
000001767,CCCCCC=CCC=CCC=CC=CC1CCCC(=O)O1,C20H30O2,"InChI=1S/C20H30O2/c1-2-3-4-5-6-7-8-9-10-11-12-13-14-16-19-17-15-18-20(21)22-19/h6-7,9-10,12-14,16,19H,2-5,8,11,15,17-18H2,1H3",302.451,-6.016437234555,-0.8136204129950002,5.20281682156,5.221828661218692
000001768,CCCCCCCCC=CCC=CC=CC(CCCC(=O)O)O,C20H34O3,"InChI=1S/C20H34O3/c1-2-3-4-5-6-7-8-9-10-11-12-13-14-16-19(21)17-15-18-20(22)23/h9-10,12-14,16,19,21H,2-8,11,15,17-18H2,1H3,(H,22,23)",322.48216,-6.174263267845,-0.9387927842249999,5.23547048362,7.582785598575367
000001769,CCCCCC(C=CC=CC=CC=CC(CCCC(=O)O)O)O,C19H30O4,"InChI=1S/C19H30O4/c1-2-3-8-12-17(20)13-9-6-4-5-7-10-14-18(21)15-11-16-19(22)23/h4-7,9-10,13-14,17-18,20-21H,2-3,8,11-12,15-16H2,1H3,(H,22,23)",322.4391,-5.586497350765001,-1.7306440891800001,3.8558532615850005,7.2195360774506145
000001770,CCCCCC=CCC=CC=CC=CC(C(CCCC(=O)O)O)O,C20H32O4,"InChI=1S/C20H32O4/c1-2-3-4-5-6-7-8-9-10-11-12-13-15-18(21)19(22)16-14-17-20(23)24/h6-7,9-13,15,18-19,21-22H,2-5,8,14,16-17H2,1H3,(H,23,24)",336.46568,-5.455882702525001,-1.0802919864850002,4.3755907160400005,4.544107122935924
000001771,CCCCCC=CCC=CCC=CC=CC(CCCC(=O)O)O,C20H32O3,"InChI=1S/C20H32O3/c1-2-3-4-5-6-7-8-9-10-11-12-13-14-16-19(21)17-15-18-20(22)23/h6-7,9-10,12-14,16,19,21H,2-5,8,11,15,17-18H2,1H3,(H,22,23)",320.46628,-6.18242668336,-0.9551196152549997,5.2273070681050005,7.604944206526896
000001772,CCCCCC=CCC=CCC=CC=CC(CCCC(=O)O)OO,C20H32O4,"InChI=1S/C20H32O4/c1-2-3-4-5-6-7-8-9-10-11-12-13-14-16-19(24-23)17-15-18-20(21)22/h6-7,9-10,12-14,16,19,23H,2-5,8,11,15,17-18H2,1H3,(H,21,22)",336.46568,-6.10623480522,-0.8435529365500001,5.26268186867,7.09521681454013
000001773,OC(=O)CCC(C(=O)O)NC(=O)c1ccc(cc1)CCC1CNc2c(C1)c(=O)nc([nH]2)N,C21H25N5O6,"InChI=1S/C21H25N5O6/c22-21-25-17-14(19(30)26-21)9-12(10-23-17)2-1-11-3-5-13(6-4-11)18(29)24-15(20(31)32)7-8-16(27)28/h3-6,12,15H,1-2,7-10H2,(H,24,29)(H,27,28)(H,31,32)(H4,22,23,25,26,30)",443.4531,-5.591939627775,-0.7564765043900001,4.835463123385,4.0053188685324415
000001774,[O-][N+]1=CCCC1(C)C,C6H11NO,"InChI=1S/C6H11NO/c1-6(2)4-3-5-7(6)8/h5H,3-4H2,1-2H3",113.15764,-5.537516857675,-0.03809593906999975,5.499420918605,3.579462734235684
000001775,O=C1NC(=O)NC1(c1ccccc1)c1ccccc1,C15H12N2O2,"InChI=1S/C15H12N2O2/c18-13-15(17-14(19)16-13,11-7-3-1-4-8-11)12-9-5-2-6-10-12/h1-10H,(H2,16,17,18,19)",252.26798,-6.606924290139999,-0.7074960113,5.899428278839999,2.7802749225869734
000001776,O=C1OCC2N1c1c(NC2)[nH]c(nc1=O)N,C8H9N5O3,"InChI=1S/C8H9N5O3/c9-7-11-5-4(6(14)12-7)13-3(1-10-5)2-16-8(13)15/h3H,1-2H2,(H4,9,10,11,12,14)",223.18876,-5.81235184668,-0.5006894849199997,5.311662361760001,11.43725668807009
000001777,CCCCCC=CCC=CCC=CCC#CCCCC(=O)O,C20H30O2,"InChI=1S/C20H30O2/c1-2-3-4-5-6-7-8-9-10-11-12-13-14-15-16-17-18-19-20(21)22/h6-7,9-10,12-13H,2-5,8,11,14,17-19H2,1H3,(H,21,22)",302.451,-5.95385104894,-0.14149920226000035,5.8123518466799995,5.062583670477753
000001778,CCCCCC=CCC=CCC=CCC1OC1CCCC(=O)O,C20H32O3,"InChI=1S/C20H32O3/c1-2-3-4-5-6-7-8-9-10-11-12-13-15-18-19(23-18)16-14-17-20(21)22/h6-7,9-10,12-13,18-19H,2-5,8,11,14-17H2,1H3,(H,21,22)",320.46628,-6.34569499366,0.12245123272500003,6.468146226385,4.834839091837597
000001779,Clc1cc(Cl)c2c(c1)[nH]c(cc2=O)C(=O)O,C10H5Cl2NO3,"InChI=1S/C10H5Cl2NO3/c11-4-1-5(12)9-6(2-4)13-7(10(15)16)3-8(9)14/h1-3H,(H,13,14)(H,15,16)",258.0576,-6.587876320605,-2.4490246545000005,4.138851666104999,1.4252456297459746
000001780,CCCCCC#CCC#CCC#CCC#CCCCC(=O)O,C20H24O2,"InChI=1S/C20H24O2/c1-2-3-4-5-6-7-8-9-10-11-12-13-14-15-16-17-18-19-20(21)22/h2-5,8,11,14,17-19H2,1H3,(H,21,22)",296.40336,-6.29127222356,0.1523837562799999,6.44365597984,4.1998281646015
000001781,CCCCCCCCC#CCC#CCC#CCCCC(=O)O,C20H28O2,"InChI=1S/C20H28O2/c1-2-3-4-5-6-7-8-9-10-11-12-13-14-15-16-17-18-19-20(21)22/h2-8,11,14,17-19H2,1H3,(H,21,22)",300.43512,-6.571549489575,0.18775855684499998,6.75930804642,3.9608310698092137
000001783,NC(=O)OCc1nc(c(n1Cc1ccncc1)Sc1cc(Cl)cc(c1)Cl)C(C)C,C20H20Cl2N4O2S,"InChI=1S/C20H20Cl2N4O2S/c1-12(2)18-19(29-16-8-14(21)7-15(22)9-16)26(10-13-3-5-24-6-4-13)17(25-18)11-28-20(23)27/h3-9,12H,10-11H2,1-2H3,(H2,23,27)",451.3694,-6.29127222356,-0.9143025376800002,5.37696968588,3.3315654332949847
000001784,COc1ccc(cc1)C1=C(OC(=O)C)c2cccn2c2c(S1)cccc2,C21H17NO3S,"InChI=1S/C21H17NO3S/c1-14(23)25-20-18-7-5-13-22(18)17-6-3-4-8-19(17)26-21(20)15-9-11-16(24-2)12-10-15/h3-13H,1-2H3",363.42958,-5.41506562495,-0.9850521388100004,4.43001348614,2.3267320328002965
000001785,COc1ccc(cc1)C1=C(OC(=O)N(C)C)c2cccn2c2c(S1)cccc2,C22H20N2O3S,"InChI=1S/C22H20N2O3S/c1-23(2)22(25)27-20-18-8-6-14-24(18)17-7-4-5-9-19(17)28-21(20)15-10-12-16(26-3)13-11-15/h4-14H,1-3H3",392.4708,-5.2490761761449996,-0.8571586290750002,4.391917547069999,4.880105283558542
000001786,Cc1noc(c1)CCCCCOc1ccc(cc1)C1=NCCO1,C18H22N2O3,"InChI=1S/C18H22N2O3/c1-14-13-17(23-20-14)5-3-2-4-11-21-16-8-6-15(7-9-16)18-19-10-12-22-18/h6-9,13H,2-5,10-12H2,1H3",314.37888,-5.752486799570001,-0.7673610584099997,4.985125741160001,2.747928704594426
000001787,CC1COC(=N1)c1ccc(cc1)OCCCCCc1onc(c1)C,C19H24N2O3,"InChI=1S/C19H24N2O3/c1-14-12-18(24-21-14)6-4-3-5-11-22-17-9-7-16(8-10-17)19-20-15(2)13-23-19/h7-10,12,15H,3-6,11,13H2,1-2H3",328.40546,-5.78514046163,-0.7945724434599999,4.99056801817,2.531571584913016
000001788,Cc1noc(c1)CCCCCOc1ccc(cc1Cl)C1=NCCO1,C18H21ClN2O3,"InChI=1S/C18H21ClN2O3/c1-13-11-15(24-21-13)5-3-2-4-9-22-17-7-6-14(12-16(17)19)18-20-8-10-23-18/h6-7,11-12H,2-5,8-10H2,1H3",348.82394,-5.91031283286,-1.0231480778800002,4.88716475498,2.8943624627129894
000001789,OCC(C(C(CNc1[nH]c(=O)[nH]c(=O)c1CCCCCP(=O)(O)O)O)O)O,C14H26N3O9P,"InChI=1S/C14H26N3O9P/c18-7-10(20)11(21)9(19)6-15-12-8(13(22)17-14(23)16-12)4-2-1-3-5-27(24,25)26/h9-11,18-21H,1-7H2,(H2,24,25,26)(H3,15,16,17,22,23)",411.344701,-5.63819898236,-0.32109434359000044,5.317104638769999,9.968388289621847
000001790,CC1COC(=N1)c1ccc(cc1)OCCCCCCCc1onc(c1)C,C21H28N2O3,"InChI=1S/C21H28N2O3/c1-16-14-20(26-23-16)8-6-4-3-5-7-13-24-19-11-9-18(10-12-19)21-22-17(2)15-25-21/h9-12,14,17H,3-8,13,15H2,1-2H3",356.45862,-5.730717691530001,-0.742870811865,4.987846879665001,2.771659654794939
000001791,CC1COC(=N1)c1ccc(c(c1)Cl)OCCCCCCCc1onc(c1)C,C21H27ClN2O3,"InChI=1S/C21H27ClN2O3/c1-15-12-18(27-24-15)8-6-4-3-5-7-11-25-20-10-9-17(13-19(20)22)21-23-16(2)14-26-21/h9-10,12-13,16H,3-8,11,14H2,1-2H3",390.90368,-5.95929332595,-0.9877732773150001,4.971520048635,2.803806265234101
000001792,CN(c1cccc2c1cccc2S(=O)(=O)O)C,C12H13NO3S,"InChI=1S/C12H13NO3S/c1-13(2)11-7-3-6-10-9(11)5-4-8-12(10)17(14,15)16/h3-8H,1-2H3,(H,14,15,16)",251.30152,-5.9320819409,-1.760576612735,4.171505328165,4.634591083330438
000001793,NC(=NC(=O)c1nc(Cl)c(nc1N)N(C)C)N,C8H12ClN7O,"InChI=1S/C8H12ClN7O/c1-16(2)6-4(9)13-3(5(10)14-6)7(17)15-8(11)12/h1-2H3,(H2,10,14)(H4,11,12,15,17)",257.68018,-5.181047713520001,-1.287098512865,3.8939492006550007,1.7154136079231737
000001794,NC(=NC(=O)c1nc(Cl)c(nc1N)N1CCCCCC1)N,C12H18ClN7O,"InChI=1S/C12H18ClN7O/c13-8-10(20-5-3-1-2-4-6-20)18-9(14)7(17-8)11(21)19-12(15)16/h1-6H2,(H2,14,18)(H4,15,16,19,21)",311.77062,-5.096692419865,-1.22995460426,3.8667378156049996,1.7363445440781617
000001795,CCN(c1nc(N)c(nc1Cl)C(=O)N=C(N)N)C(C)C,C11H18ClN7O,"InChI=1S/C11H18ClN7O/c1-4-19(5(2)3)9-7(12)16-6(8(13)17-9)10(20)18-11(14)15/h5H,4H2,1-3H3,(H2,13,17)(H4,14,15,18,20)",299.75992,-5.096692419865,-1.2326757427650001,3.8640166770999995,1.3915122954501695
000001796,NC(=NC(=O)c1nc(Cl)c(nc1N)N(C(C)(C)C)C)N,C11H18ClN7O,"InChI=1S/C11H18ClN7O/c1-11(2,3)19(4)8-6(12)16-5(7(13)17-8)9(20)18-10(14)15/h1-4H3,(H2,13,17)(H4,14,15,18,20)",299.75992,-5.216422514085,-1.3551269754900002,3.861295538595,2.11281199725721
000001797,CCCCCCCCCOc1ccc2c(c1)c(CCN)c[nH]2,C19H30N2O,"InChI=1S/C19H30N2O/c1-2-3-4-5-6-7-8-13-22-17-9-10-19-18(14-17)16(11-12-20)15-21-19/h9-10,14-15,21H,2-8,11-13,20H2,1H3",302.4543,-5.085807865845,-0.021769108039999985,5.064038757805,0.4621868786778785
000001799,CCCN(C(=O)C1OC(=CC(C1NC(=O)C)N)C(=O)O)CCc1ccccc1,C20H27N3O5,"InChI=1S/C20H27N3O5/c1-3-10-23(11-9-14-7-5-4-6-8-14)19(25)18-17(22-13(2)24)15(21)12-16(28-18)20(26)27/h4-8,12,15,17-18H,3,9-11,21H2,1-2H3,(H,22,24)(H,26,27)",389.44548,-6.209638068409999,-0.6585155182099998,5.5511225502,7.558823281157126
000001801,NC(=N)c1ccc2c(c1)[nH]cn2,C8H8N4,"InChI=1S/C8H8N4/c9-8(10)5-1-2-6-7(3-5)12-4-11-6/h1-4H,(H3,9,10)(H,11,12)",160.17592,-6.06269658914,-0.7972935819650004,5.265403007174999,3.9004265305681636
000001802,NC(=O)c1cnn(c1N)c1ccccc1,C10H10N4O,"InChI=1S/C10H10N4O/c11-9-8(10(12)15)6-13-14(9)7-4-2-1-3-5-7/h1-6H,11H2,(H2,12,15)",202.2126,-5.6599680904,-0.6340252716650001,5.0259428187349995,1.0271545949393401
000001803,OCC1OC(CC1O)n1cc(N)c(=O)[nH]c1=O,C9H13N3O5,"InChI=1S/C9H13N3O5/c10-4-2-12(9(16)11-8(4)15)7-1-5(14)6(3-13)17-7/h2,5-7,13-14H,1,3,10H2,(H,11,15,16)",243.21662,-5.238191622125,-0.6911691802700002,4.547022441855,4.975229464938175
000001805,OCC1OC(C(C1O)O)n1cnc(nc1=O)N,C8H12N4O5,"InChI=1S/C8H12N4O5/c9-7-10-2-12(8(16)11-7)6-5(15)4(14)3(1-13)17-6/h2-6,13-15H,1H2,(H2,9,11,16)",244.20468,-6.892643833165001,-1.4013863300749998,5.491257503090001,3.0370860041653414
000001809,NCCc1c[nH]c2c1cc(cc2)C(=O)N,C11H13N3O,"InChI=1S/C11H13N3O/c12-4-3-8-6-14-10-2-1-7(11(13)15)5-9(8)10/h1-2,5-6,14H,3-4,12H2,(H2,13,15)",203.24042,-5.526632303655,-0.43810329930500025,5.08852900435,5.202465194694242
000001810,ClCC1OC(C(C1O)O)n1ccc(nc1=O)N,C9H12ClN3O4,"InChI=1S/C9H12ClN3O4/c10-3-4-6(14)7(15)8(17-4)13-2-1-5(11)12-9(13)16/h1-2,4,6-8,14-15H,3H2,(H2,11,12,16)",261.66228,-6.2803876695400005,-1.1592050031300003,5.12118266641,4.503716574961062
000001812,Oc1ccc2c(c1)OCC(C2=O)c1ccc(c2c1OC(C)(C)C=C2)O,C20H18O5,"InChI=1S/C20H18O5/c1-20(2)8-7-13-16(22)6-5-12(19(13)25-20)15-10-24-17-9-11(21)3-4-14(17)18(15)23/h3-9,15,21-22H,10H2,1-2H3",338.35392,-5.4966997801,-1.03947490891,4.45722487119,3.1008758868909925
000001814,OCC1OC(CC1O)n1cc(CC)c(=O)[nH]c1=O,C11H16N2O5,"InChI=1S/C11H16N2O5/c1-2-6-4-13(11(17)12-10(6)16)9-3-7(15)8(5-14)18-9/h4,7-9,14-15H,2-3,5H2,1H3,(H,12,16,17)",256.25514,-6.4028389022650005,-1.2571659893099998,5.145672912955001,2.7677769037310433
000001815,OC1CC(OC1COP(=O)(Oc1ccc(cc1)N)O)n1cc(F)c(=O)[nH]c1=O,C15H17FN3O8P,"InChI=1S/C15H17FN3O8P/c16-10-6-19(15(22)18-14(10)21)13-5-11(20)12(26-13)7-25-28(23,24)27-9-3-1-8(17)2-4-9/h1-4,6,11-13,20H,5,7,17H2,(H,23,24)(H,18,21,22)",417.2829442,-5.71983313751,-1.2898196513700002,4.43001348614,8.118659242538081
000001816,OC1CC(OC1COP(=O)(O)O)n1cc(F)c(=O)[nH]c1=O,C9H12FN2O8P,"InChI=1S/C9H12FN2O8P/c10-4-2-12(9(15)11-8(4)14)7-1-5(13)6(20-7)3-19-21(16,17)18/h2,5-7,13H,1,3H2,(H,11,14,15)(H2,16,17,18)",326.1723442,-6.5688283510700005,-1.406828607085,5.1619997439850005,6.646373382382531
000001817,OCC1OC(C(C1O)O)n1c(F)cc(=O)[nH]c1=O,C9H11FN2O6,"InChI=1S/C9H11FN2O6/c10-4-1-5(14)11-9(17)12(4)8-7(16)6(15)3(2-13)18-8/h1,3,6-8,13,15-16H,2H2,(H,11,14,17)",262.1918432,-6.8790381406400005,-1.1728106956550004,5.706227444985,2.218276098685869
000001818,CN(CCNC(=O)c1cccc2c1nc1c(F)cccc1c2N)C,C18H19FN4O,"InChI=1S/C18H19FN4O/c1-23(2)10-9-21-18(24)13-7-3-5-11-15(20)12-6-4-8-14(19)17(12)22-16(11)13/h3-8H,9-10H2,1-2H3,(H2,20,22)(H,21,24)",326.3680632,-5.36064285485,-1.8857489839650001,3.474893870885,6.179898666568166
000001819,Fc1ccc2c(c1)c(CCCOP(=O)(O)O)c[nH]2,C11H13FNO4P,"InChI=1S/C11H13FNO4P/c12-9-3-4-11-10(6-9)8(7-13-11)2-1-5-17-18(14,15)16/h3-4,6-7,13H,1-2,5H2,(H2,14,15,16)",273.1973842,-5.54023799618,-0.42449760678000015,5.1157403894,3.710282353375279
000001820,Fc1ccc2c(c1)cc([nH]2)C(=O)O,C9H6FNO2,"InChI=1S/C9H6FNO2/c10-6-1-2-7-5(3-6)4-8(11-7)9(12)13/h1-4,11H,(H,12,13)",179.1478432,-6.239570591965,-1.6843847345949996,4.555185857370001,2.320245939738717
000001821,OCC1OC(C(C1O)O)n1cc(F)c(=O)[nH]c1=O,C9H11FN2O6,"InChI=1S/C9H11FN2O6/c10-3-1-12(9(17)11-7(3)16)8-6(15)5(14)4(2-13)18-8/h1,4-6,8,13-15H,2H2,(H,11,16,17)",262.1918432,-6.62869339818,-1.5537700863549997,5.074923311825001,3.215603173201258
000001823,CCCCC(CCCCCCCCCCC(C=CC#C)O)C,C21H38O,"InChI=1S/C21H38O/c1-4-6-16-20(3)17-14-12-10-8-9-11-13-15-19-21(22)18-7-5-2/h2,7,18,20-22H,4,6,8-17,19H2,1,3H3",306.52582,-6.31848360861,-0.7020537342899997,5.6164298743200005,1.3175459842274957
000001825,CCCCCC(CCCC(=O)O)O,C10H20O3,"InChI=1S/C10H20O3/c1-2-3-4-6-9(11)7-5-8-10(12)13/h9,11H,2-8H2,1H3,(H,12,13)",188.264,-7.104892636555,0.13333578674499957,7.2382284233,3.2665421111998545
000001826,OC(=O)Cc1c[nH]c2c1cc(O)cc2,C10H9NO3,"InChI=1S/C10H9NO3/c12-7-1-2-9-8(4-7)6(5-11-9)3-10(13)14/h1-2,4-5,11-12H,3H2,(H,13,14)",191.18336,-5.72527541452,-0.6938903187749998,5.031385095745001,4.845755557652904
000001827,OCc1cn(c(=O)[nH]c1=O)C1(C)OC(C(C1(C)C)(C)O)(C)CO,C15H24N2O6,"InChI=1S/C15H24N2O6/c1-12(2)14(4,22)13(3,8-19)23-15(12,5)17-6-9(7-18)10(20)16-11(17)21/h6,18-19,22H,7-8H2,1-5H3,(H,16,20,21)",328.36086,-6.16609985233,-0.808178135985,5.357921716345,5.412635729145367
000001828,OCC1OC(C(C1O)O)n1cc(O)c(=O)[nH]c1=O,C9H12N2O7,"InChI=1S/C9H12N2O7/c12-2-4-5(14)6(15)8(18-4)11-1-3(13)7(16)10-9(11)17/h1,4-6,8,12-15H,2H2,(H,10,16,17)",260.20078,-6.141609605785001,-1.2571659893099998,4.884443616475001,3.727957015973897
000001831,CCCCCC=CCC=CCC=CC=CC(=O)CCCC(=O)O,C20H30O3,"InChI=1S/C20H30O3/c1-2-3-4-5-6-7-8-9-10-11-12-13-14-16-19(21)17-15-18-20(22)23/h6-7,9-10,12-14,16H,2-5,8,11,15,17-18H2,1H3,(H,22,23)",318.4504,-6.5470592430300005,-2.3918807458949995,4.155178497135001,9.614736906122808
000001832,COc1ccc2c(c1)c(CCN(C)C)c[nH]2,C13H18N2O,"InChI=1S/C13H18N2O/c1-15(2)7-6-10-9-14-13-5-4-11(16-3)8-12(10)13/h4-5,8-9,14H,6-7H2,1-3H3",218.29482,-4.987846879665,-0.11973009422000036,4.868116785444999,2.7035303358982308
000001833,NCCc1c[nH]c2c1cc(OC)cc2,C11H14N2O,"InChI=1S/C11H14N2O/c1-14-9-2-3-11-10(6-9)8(4-5-12)7-13-11/h2-3,6-7,13H,4-5,12H2,1H3",190.24166,-5.009615987705001,-0.1387780637549998,4.870837923950001,2.366653050463037
000001834,OC1CC(OC1COP(=O)(O)O)n1cc(C)c(nc1=O)N,C10H16N3O7P,"InChI=1S/C10H16N3O7P/c1-5-3-13(10(15)12-9(5)11)8-2-6(14)7(20-8)4-19-21(16,17)18/h3,6-8,14H,2,4H2,1H3,(H2,11,12,15)(H2,16,17,18)",321.223701,-5.839563231730001,-0.808178135985,5.031385095745001,3.8319486958295776
000001835,OCC1OC(CC1O)n1cc(C)c(nc1=O)N,C10H15N3O4,"InChI=1S/C10H15N3O4/c1-5-3-13(10(16)12-9(5)11)8-2-6(15)7(4-14)17-8/h3,6-8,14-15H,2,4H2,1H3,(H2,11,12,16)",241.2438,-5.880380309305,-0.9496773382450003,4.93070297106,6.026800323121383
000001836,O=C1NC(=O)C(C(=O)N1)(C)c1ccc(cc1)Oc1ccccc1,C17H14N2O4,"InChI=1S/C17H14N2O4/c1-17(14(20)18-16(22)19-15(17)21)11-7-9-13(10-8-11)23-12-5-3-2-4-6-12/h2-10H,1H3,(H2,18,19,20,21,22)",310.30406,-6.021879511565,-1.3224733134299997,4.699406198135001,1.8489959755664693
000001837,CN(CCc1c[nH]c2c1cc(C)cc2)C,C13H18N2,"InChI=1S/C13H18N2/c1-10-4-5-13-12(8-10)11(9-14-13)6-7-15(2)3/h4-5,8-9,14H,6-7H2,1-3H3",202.29542,-5.20825909857,-0.046259354584999635,5.1619997439850005,1.5044127455934426
000001838,OCC1(C)OC(C(C1(C)O)(C)O)(C)n1cc(C)c(nc1=O)N,C14H23N3O5,"InChI=1S/C14H23N3O5/c1-8-6-17(10(19)16-9(8)15)14(5)13(4,21)12(3,20)11(2,7-18)22-14/h6,18,20-21H,7H2,1-5H3,(H2,15,16,19)",313.34952,-5.9320819409,-0.8707643216000003,5.0613176193,6.32914379917434
000001839,NC(=O)NN=Cc1ccc(o1)[N+](=O)[O-],C6H6N4O4,"InChI=1S/C6H6N4O4/c7-6(11)9-8-3-4-1-2-5(14-4)10(12)13/h1-3H,(H3,7,9,11)",198.13624,-6.34025271665,-2.669436873405,3.670815843245,4.7349733398588425
000001840,OCC(C(C(CNc1[nH]c(=O)[nH]c(=O)c1N=O)O)O)O,C9H14N4O7,"InChI=1S/C9H14N4O7/c14-2-4(16)6(17)3(15)1-10-7-5(13-20)8(18)12-9(19)11-7/h3-4,6,14-17H,1-2H2,(H3,10,11,12,18,19)",290.23006,-5.52935344216,-1.9809888316400004,3.5483646105199993,6.682359655897233
000001841,OCC(C(C(C(C=O)O)O)O)S,C6H12O5S,"InChI=1S/C6H12O5S/c7-1-3(9)5(10)6(11)4(12)2-8/h1,3-6,8-12H,2H2",196.22148,-6.4463771183450005,-1.37145380652,5.074923311825001,1.2231842768467063
000001842,OC1CC(OC1COS(=O)(=O)c1ccc(cc1)C)n1cnc2c1ncnc2N,C17H19N5O5S,"InChI=1S/C17H19N5O5S/c1-10-2-4-11(5-3-10)28(24,25)26-7-13-12(23)6-14(27-13)22-9-21-15-16(18)19-8-20-17(15)22/h2-5,8-9,12-14,23H,6-7H2,1H3,(H2,18,19,20)",405.42826,-5.861332339770001,-1.52927983981,4.3320524999600005,5.026552515022697
000001844,OCC(C(C(C(NC(=O)C)CCC(=O)C(=O)O)O)O)O,C11H19NO8,"InChI=1S/C11H19NO8/c1-5(14)12-6(2-3-7(15)11(19)20)9(17)10(18)8(16)4-13/h6,8-10,13,16-18H,2-4H2,1H3,(H,12,14)(H,19,20)",293.27046,-6.67767389127,-2.8299840452,3.8476898460700006,1.2882562697417776
000001845,Clc1cc2[nH]c(=O)c(=O)[nH]c2cc1Cl,C8H4Cl2N2O2,"InChI=1S/C8H4Cl2N2O2/c9-3-1-5-6(2-4(3)10)12-8(14)7(13)11-5/h1-2H,(H,11,13)(H,12,14)",231.03556,-6.310320193095,-1.8775855684499998,4.432734624645001,3.1034151111627013
000001848,CC(=CCc1c2OC(c3ccc(cc3)O)C(C(=O)c2c(c(c1O)CC=C(C)C)O)O)C,C25H28O6,"InChI=1S/C25H28O6/c1-13(2)5-11-17-20(27)18(12-6-14(3)4)25-19(21(17)28)22(29)23(30)24(31-25)15-7-9-16(26)10-8-15/h5-10,23-24,26-28,30H,11-12H2,1-4H3",424.48622,-5.630035566845,-1.0449171859200002,4.585118380925,3.8452320980550705
000001849,CC(=CCc1c(O)c(CC=C(C)C)c(c2c1oc(c1ccc(cc1)O)c(c2=O)O)O)C,C25H26O6,"InChI=1S/C25H26O6/c1-13(2)5-11-17-20(27)18(12-6-14(3)4)25-19(21(17)28)22(29)23(30)24(31-25)15-7-9-16(26)10-8-15/h5-10,26-28,30H,11-12H2,1-4H3",422.47034,-5.113019250895,-1.140157033595,3.9728622173000003,3.6597415969115907
000001851,OC(=O)C=C(C=CCC1(C)CC2=C(C1=C)CCCC2(C)C)C,C20H28O2,"InChI=1S/C20H28O2/c1-14(12-18(21)22)8-6-11-20(5)13-17-16(15(20)2)9-7-10-19(17,3)4/h6,8,12H,2,7,9-11,13H2,1,3-5H3,(H,21,22)",300.43512,-5.81235184668,-1.4966261777500005,4.31572566893,5.157850013041287
000001853,O=c1[nH]c2ccccc2c2c1cccc2,C13H9NO,"InChI=1S/C13H9NO/c15-13-11-7-2-1-5-9(11)10-6-3-4-8-12(10)14-13/h1-8H,(H,14,15)",195.21666,-5.815072985185,-1.3007042053899998,4.514368779795,3.1803568049684303