mol_id,SMILES,formula,inchi,mass,HOMO(eV),LUMO(eV),GAP(eV),dipole_moment
000003599,CCCCCCCCCCCCCCCCOP(=O)(OCC[N+](C)(C)C)[O-],C21H46NO4P,"InChI=1S/C21H46NO4P/c1-5-6-7-8-9-10-11-12-13-14-15-16-17-18-20-25-27(23,24)26-21-19-22(2,3)4/h5-21H2,1-4H3",407.568001,-6.049090896615,0.6938903187749998,6.7429812153899995,13.111208424776795
000003606,CCC(C(c1ccc(cc1)O)CC)c1ccc(cc1)O,C18H22O2,"InChI=1S/C18H22O2/c1-3-17(13-5-9-15(19)10-6-13)18(4-2)14-7-11-16(20)12-8-14/h5-12,17-20H,3-4H2,1-2H3",270.36608,-5.570170519735,-0.03265366206000042,5.537516857675,1.8455647679163145
000003607,CCCCC(CN1CN(CC(CCCC)CC)CC(C1)(C)N)CC,C21H45N3,"InChI=1S/C21H45N3/c1-6-10-12-19(8-3)14-23-16-21(5,22)17-24(18-23)15-20(9-4)13-11-7-2/h19-20H,6-18,22H2,1-5H3",339.6021,-5.521190026645,1.75241319722,7.273603223865,1.904760700030584
000003608,O=C1NC(=O)C(C(=O)N1C)(C)C1=CCCCC1,C12H16N2O3,"InChI=1S/C12H16N2O3/c1-12(8-6-4-3-5-7-8)9(15)13-11(17)14(2)10(12)16/h6H,3-5,7H2,1-2H3,(H,13,15,17)",236.26704,-6.658625921735,-1.0721285709699995,5.586497350765001,1.3542273130970295
000003609,OC(c1ccc(c(c1)O)O)CNCCCCCCNCC(c1ccc(c(c1)O)O)O,C22H32N2O6,"InChI=1S/C22H32N2O6/c25-17-7-5-15(11-19(17)27)21(29)13-23-9-3-1-2-4-10-24-14-22(30)16-6-8-18(26)20(28)12-16/h5-8,11-12,21-30H,1-4,9-10,13-14H2",420.49928,-5.352479439335,0.28027726601500014,5.63275670535,1.950421346880976
000003610,CCCCCCc1ccc(cc1O)O,C12H18O2,"InChI=1S/C12H18O2/c1-2-3-4-5-6-10-7-8-11(13)9-12(10)14/h7-9,13-14H,2-6H2,1H3",194.27012,-5.455882702525001,0.24490246545000005,5.700785167975001,1.582242431854866
000003611,CC(c1cccc(c(=O)c1)O)C,C10H12O2,"InChI=1S/C10H12O2/c1-7(2)8-4-3-5-9(11)10(12)6-8/h3-7H,1-2H3,(H,11,12)",164.20108,-5.94296649492,-2.136093726425,3.8068727684950003,2.932985957152881
000003614,Cn1cc(nc1)CCN,C6H11N3,"InChI=1S/C6H11N3/c1-9-4-6(2-3-7)8-5-9/h4-5H,2-3,7H2,1H3",125.17164,-5.70894858349,0.6394675486750003,6.348416132165,3.1502780524718768
000003615,CC(Cc1cnc[nH]1)N,C6H11N3,"InChI=1S/C6H11N3/c1-5(7)2-6-3-8-4-9-6/h3-5H,2,7H2,1H3,(H,8,9)",125.17164,-5.679016059935,0.5523911165150004,6.23140717645,3.3114556282977734
000003616,CC(=O)NCCCCCCNC(=O)C,C10H20N2O2,"InChI=1S/C10H20N2O2/c1-9(13)11-7-5-3-4-6-8-12-10(2)14/h3-8H2,1-2H3,(H,11,13)(H,12,14)",200.278,-6.4763096418999995,0.8381106595399999,7.314420301439999,0.00010741508273980894
000003618,OC(=O)C1Cc2ccccc2CN1S(=O)(=O)c1ccc(cc1)c1ccccc1,C22H19NO4S,"InChI=1S/C22H19NO4S/c24-22(25)21-14-18-8-4-5-9-19(18)15-23(21)28(26,27)20-12-10-17(11-13-20)16-6-2-1-3-7-16/h1-13,21H,14-15H2,(H,24,25)",393.45556,-6.544338104525,-1.629961964495,4.91437614003,4.171384021170072
000003619,CC(=O)OCOC(P(=O)(OCOC(=O)C)OCOC(=O)C)c1ccc2c(c1)cccc2,C20H23O10P,"InChI=1S/C20H23O10P/c1-14(21)25-11-28-20(19-9-8-17-6-4-5-7-18(17)10-19)31(24,29-12-26-15(2)22)30-13-27-16(3)23/h4-10,20H,11-13H2,1-3H3",454.364381,-6.0409274811,-1.2707716818349999,4.770155799265,5.8360273252508845
000003623,OC(c1ccccc1)C(=O)OC1CC2CCC(C1)N2C,C16H21NO3,"InChI=1S/C16H21NO3/c1-17-12-7-8-13(17)10-14(9-12)20-16(19)15(18)11-5-3-2-4-6-11/h2-6,12-15,18H,7-10H2,1H3",275.34284,-5.630035566845,-0.5578333935249997,5.07220217332,1.4333421175350984
000003626,NC(=NCCCCC(C(=O)O)N)N,C7H16N4O2,"InChI=1S/C7H16N4O2/c8-5(6(12)13)3-1-2-4-11-7(9)10/h5H,1-4,8H2,(H,12,13)(H4,9,10,11)",188.22754,-6.22596489944,0.3809593907000002,6.60692429014,5.86928965723221
000003627,CN1CCCN(CC1)C(c1ccc(cc1)Cl)c1ccccc1,C19H23ClN2,"InChI=1S/C19H23ClN2/c1-21-12-5-13-22(15-14-21)19(16-6-3-2-4-7-16)17-8-10-18(20)11-9-17/h2-4,6-11,19H,5,12-15H2,1H3",314.85232,-5.69262175246,-0.5115740389400001,5.18104771352,2.6724899247400353
000003630,CC=C1C2CC(CC1(N)c1c(C2)[nH]c(=O)cc1)C,C15H20N2O,"InChI=1S/C15H20N2O/c1-3-11-10-6-9(2)8-15(11,16)12-4-5-14(18)17-13(12)7-10/h3-5,9-10H,6-8,16H2,1-2H3,(H,17,18)",244.3321,-4.846347677405,-0.9115813991750001,3.93476627823,5.9520306830809435
000003631,CC1=CC2Cc3c(C4(C1)C2CCCN4)ccc(=O)[nH]3,C16H20N2O,"InChI=1S/C16H20N2O/c1-10-7-11-8-14-13(4-5-15(19)18-14)16(9-10)12(11)3-2-6-17-16/h4-5,7,11-12,17H,2-3,6,8-9H2,1H3,(H,18,19)",256.3428,-5.564728242725,-1.0340326318999997,4.530695610825,4.628841154051087
000003632,CCC1=CC2CC(C1)c1c(C2)nc2c(c1N)ccc(c2)Cl,C18H19ClN2,"InChI=1S/C18H19ClN2/c1-2-10-5-11-7-12(6-10)17-16(8-11)21-15-9-13(19)3-4-14(15)18(17)20/h3-5,9,11-12H,2,6-8H2,1H3,(H2,20,21)",298.80986,-5.657246951895,-1.1700895571499998,4.487157394745,5.001350449564797
000003634,CCN(CCNc1ccc(c2c1c(=O)c1c(s2)cccc1)CO)CC,C20H24N2O2S,"InChI=1S/C20H24N2O2S/c1-3-22(4-2)12-11-21-16-10-9-14(13-23)20-18(16)19(24)15-7-5-6-8-17(15)25-20/h5-10,21,23H,3-4,11-13H2,1-2H3",356.48176,-5.134788358935,-1.6027505794449999,3.5320377794900004,1.1930531015223087
000003635,CCN(CCCNc1ccc(c2c1c(=O)c1c(s2)cccc1)CO)CC,C21H26N2O2S,"InChI=1S/C21H26N2O2S/c1-3-23(4-2)13-7-12-22-17-11-10-15(14-24)21-19(17)20(25)16-8-5-6-9-18(16)26-21/h5-6,8-11,22,24H,3-4,7,12-14H2,1-2H3",370.50834,-5.069481034815,-1.5428855323350001,3.52659550248,2.367781366539149
000003637,NNc1nncc2c1cccc2,C8H8N4,"InChI=1S/C8H8N4/c9-11-8-7-4-2-1-3-6(7)5-10-12-8/h1-5H,9H2,(H,11,12)",160.17592,-5.864053478275,-1.5646546403750001,4.2993988379,4.081824076829745
000003638,CN1CCc2c(C1O)cc1c(c2)OCO1,C11H13NO3,"InChI=1S/C11H13NO3/c1-12-3-2-7-4-9-10(15-6-14-9)5-8(7)11(12)13/h4-5,11,13H,2-3,6H2,1H3",207.22582,-5.510305472625,-0.10884554019999992,5.401459932425,1.8197701896720366
000003639,Clc1cc2NCNS(=O)(=O)c2cc1S(=O)(=O)N,C7H8ClN3O4S2,"InChI=1S/C7H8ClN3O4S2/c8-4-1-5-7(2-6(4)16(9,12)13)17(14,15)11-3-10-5/h1-2,10-11H,3H2,(H2,9,12,13)",297.73912,-6.530732412,-1.5211164242950002,5.009615987705,8.69460192015172
000003640,OCC(=O)C1(O)CCC2C1(C)CC(O)C1C2CCC2=CC(=O)CCC12C,C21H30O5,"InChI=1S/C21H30O5/c1-19-7-5-13(23)9-12(19)3-4-14-15-6-8-21(26,17(25)11-22)20(15,2)10-16(24)18(14)19/h9,14-16,18,22,24,26H,3-8,10-11H2,1-2H3",362.4599,-6.130725051765,-1.118387925555,5.01233712621,3.746265897357127
000003641,CC(=O)OCC(=O)C1(O)CCC2C1(C)CC(O)C1C2CCC2=CC(=O)CCC12C,C23H32O6,"InChI=1S/C23H32O6/c1-13(24)29-12-19(27)23(28)9-7-17-16-5-4-14-10-15(25)6-8-21(14,2)20(16)18(26)11-22(17,23)3/h10,16-18,20,26,28H,4-9,11-12H2,1-3H3",404.49658,-6.12256163625,-1.3442424214699997,4.778319214780001,6.645481191842394
000003642,CCCC(=O)OC1(CCC2C1(C)CC(O)C1C2CCC2=CC(=O)CCC12C)C(=O)CO,C25H36O6,"InChI=1S/C25H36O6/c1-4-5-21(30)31-25(20(29)14-26)11-9-18-17-7-6-15-12-16(27)8-10-23(15,2)22(17)19(28)13-24(18,25)3/h12,17-19,22,26,28H,4-11,13-14H2,1-3H3",432.54974,-6.019158373060001,-0.97416758479,5.044990788270001,8.434711893726602
000003643,OC(=O)CCC(=O)OCC(=O)C1(O)CCC2C1(C)CC(O)C1C2CCC2=CC(=O)CCC12C,C25H34O8,"InChI=1S/C25H34O8/c1-23-9-7-15(26)11-14(23)3-4-16-17-8-10-25(32,24(17,2)12-18(27)22(16)23)19(28)13-33-21(31)6-5-20(29)30/h11,16-18,22,27,32H,3-10,12-13H2,1-2H3,(H,29,30)",462.53266,-6.1797055448550005,-1.6490099340299995,4.530695610825001,1.8872324594604133
000003645,O=C1CCC2(C(=C1)CCC1C2C(O)CC2(C1CCC2(O)C(=O)COP(=O)(O)O)C)C,C21H31O8P,"InChI=1S/C21H31O8P/c1-19-7-5-13(22)9-12(19)3-4-14-15-6-8-21(25,17(24)11-29-30(26,27)28)20(15,2)10-16(23)18(14)19/h9,14-16,18,23,25H,3-8,10-11H2,1-2H3,(H2,26,27,28)",442.439801,-6.06813886615,-1.363290391005,4.704848475145,4.219937227340473
000003646,COc1c2CN(C)CCc2cc2c1OCO2,C12H15NO3,"InChI=1S/C12H15NO3/c1-13-4-3-8-5-10-12(16-7-15-10)11(14-2)9(8)6-13/h5H,3-4,6-7H2,1-2H3",221.2524,-5.298056669235001,0.45987240734500023,5.757929076580001,1.7722129095585553
000003647,FC(c1cc2NCNS(=O)(=O)c2cc1S(=O)(=O)N)(F)F,C8H8F3N3O4S2,"InChI=1S/C8H8F3N3O4S2/c9-8(10,11)4-1-5-7(2-6(4)19(12,15)16)20(17,18)14-3-13-5/h1-2,13-14H,3H2,(H2,12,15,16)",331.2920296,-6.658625921735,-1.9238449230350003,4.7347809987,7.300797679331622
000003648,O=C1CCC2C34C1Oc1c4c(CC2N(CC3)C)ccc1O,C17H19NO3,"InChI=1S/C17H19NO3/c1-18-7-6-17-10-3-5-13(20)16(17)21-15-12(19)4-2-9(14(15)17)8-11(10)18/h2,4,10-11,16,19H,3,5-8H2,1H3",285.33766,-5.39873879392,-0.8245049670149998,4.574233826905,4.225823673541645
000003649,CCC1CN2CCC1CC2C(c1ccnc2c1cc(OC)cc2)O,C20H26N2O2,"InChI=1S/C20H26N2O2/c1-3-13-12-22-9-7-14(13)10-19(22)20(23)16-6-8-21-18-5-4-15(24-2)11-17(16)18/h4-6,8,11,13-14,19-20,23H,3,7,9-10,12H2,1-2H3",326.43264,-5.47493067206,-1.1211090640599997,4.3538216080000005,2.4114342454781967
000003650,O=C1NC(O)C(C(=O)N1)F,C4H5FN2O3,"InChI=1S/C4H5FN2O3/c5-1-2(8)6-4(10)7-3(1)9/h1-2,8H,(H2,6,7,9,10)",148.0925032,-7.32530485546,-1.161926141635,6.163378713825,2.2357389119586393
000003651,CC(Cc1ccc(cc1)O)N,C9H13NO,"InChI=1S/C9H13NO/c1-7(10)6-8-2-4-9(11)5-3-8/h2-5,7,11H,6,10H2,1H3",151.20562,-5.591939627775,-0.040817077575000305,5.5511225502,2.054523140463743
000003652,OCCN(CCCC(Nc1ccnc2c1ccc(c2)Cl)C)CC,C18H26ClN3O,"InChI=1S/C18H26ClN3O/c1-3-22(11-12-23)10-4-5-14(2)21-17-8-9-20-18-13-15(19)6-7-16(17)18/h6-9,13-14,23H,3-5,10-12H2,1-2H3,(H,20,21)",335.87154,-5.6817371984400005,-1.2136277732299998,4.468109425210001,5.595312676544716
000003653,CCCCCC(=O)OC1(CCC2C1(C)CCC1C2CCC2=CC(=O)CCC12C)C(=O)C,C27H40O4,"InChI=1S/C27H40O4/c1-5-6-7-8-24(30)31-27(18(2)28)16-13-23-21-10-9-19-17-20(29)11-14-25(19,3)22(21)12-15-26(23,27)4/h17,21-23H,5-16H2,1-4H3",428.6041,-6.239570591965,-1.1483204491099999,5.091250142855,4.485470476319513
000003655,OC1CCCc2c1c(N)c1c(n2)cccc1,C13H14N2O,"InChI=1S/C13H14N2O/c14-13-8-4-1-2-5-9(8)15-10-6-3-7-11(16)12(10)13/h1-2,4-5,11,16H,3,6-7H2,(H2,14,15)",214.26306,-5.461324979535,-0.9877732773150001,4.47355170222,2.120837021043814
000003656,CCCCNC(=O)NS(=O)(=O)c1ccc(cc1)CO,C12H18N2O4S,"InChI=1S/C12H18N2O4S/c1-2-3-8-13-12(16)14-19(17,18)11-6-4-10(9-15)5-7-11/h4-7,15H,2-3,8-9H2,1H3,(H2,13,14,16)",286.34732,-6.854547894095001,-1.2598871278150003,5.5946607662800005,3.607183108259962
000003657,NC(=O)NO,CH4N2O2,"InChI=1S/CH4N2O2/c2-1(4)3-5/h5H,(H3,2,3,4)",76.05466,-6.43277142582,0.9034179836599998,7.33618940948,3.381559146366806
000003658,OCCOCCN1CCN(CC1)C(c1ccc(cc1)Cl)c1ccccc1,C21H27ClN2O2,"InChI=1S/C21H27ClN2O2/c22-20-8-6-19(7-9-20)21(18-4-2-1-3-5-18)24-12-10-23(11-13-24)14-16-26-17-15-25/h1-9,21,25H,10-17H2",374.90428,-5.630035566845,-0.45987240734500023,5.1701631594999995,1.0220478580007886
000003661,OCC(c1ccccc1)C(=O)OC1CC2CCC(C1)N2C,C17H23NO3,"InChI=1S/C17H23NO3/c1-18-13-7-8-14(18)10-15(9-13)21-17(20)16(11-19)12-5-3-2-4-6-12/h2-6,13-16,19H,7-11H2,1H3",289.36942,-5.730717691530001,-0.43266102229500003,5.298056669235001,2.478740707186817
000003666,CC(=O)OC1CC2(C)OC2CCC2(C(CC3C(C1C(=C)C(=O)C3)(C)C)O2)C,C22H32O5,"InChI=1S/C22H32O5/c1-12-15(24)9-14-10-18-21(5,27-18)8-7-17-22(6,26-17)11-16(25-13(2)23)19(12)20(14,3)4/h14,16-19H,1,7-11H2,2-6H3",376.48648,-6.566107212565,-1.2870985128649997,5.2790086997,1.4556974792813238
000003667,OC(=O)COc1cc2CC(C(=O)c2c(c1Cl)Cl)(C)C1CCCC1,C17H18Cl2O4,"InChI=1S/C17H18Cl2O4/c1-17(10-4-2-3-5-10)7-9-6-11(23-8-12(20)21)14(18)15(19)13(9)16(17)22/h6,10H,2-5,7-8H2,1H3,(H,20,21)",357.22842,-6.718490968845001,-1.83948962938,4.879001339465001,5.098907686323611
000003671,CC(C(=O)c1c(nn2c1cccc2)C(C)C)C,C14H18N2O,"InChI=1S/C14H18N2O/c1-9(2)13-12(14(17)10(3)4)11-7-5-6-8-16(11)15-13/h5-10H,1-4H3",230.30552,-5.978341295485,-1.428597715125,4.54974358036,4.5200938293105155
000003672,CC(Cc1ccc(cc1)C(C(=O)O)C)C,C13H18O2,"InChI=1S/C13H18O2/c1-9(2)8-11-4-6-12(7-5-11)10(3)13(14)15/h4-7,9-10H,8H2,1-3H3,(H,14,15)",206.28082,-6.6205299826649995,-0.5088529004350004,6.111677082229999,4.9276260584079425
000003673,CC(Cc1ccc(cc1)C(C(=O)OCc1ccccn1)C)C,C19H23NO2,"InChI=1S/C19H23NO2/c1-14(2)12-16-7-9-17(10-8-16)15(3)19(21)22-13-18-6-4-5-11-20-18/h4-11,14-15H,12-13H2,1-3H3",297.39142,-6.3021567775800005,-0.6748423492400004,5.62731442834,1.7708436473480655
000003674,COc1cc(OC)cc(c1C=C1C(=O)Nc2c1cccc2)OC,C18H17NO4,"InChI=1S/C18H17NO4/c1-21-11-8-16(22-2)14(17(9-11)23-3)10-13-12-6-4-5-7-15(12)19-18(13)20/h4-10H,1-3H3,(H,19,20)",311.33188,-5.47493067206,-1.56193350187,3.91299717019,3.4848142312050148
000003675,NNCCc1ccccc1,C8H12N2,"InChI=1S/C8H12N2/c9-10-7-6-8-4-2-1-3-5-8/h1-5,10H,6-7,9H2",136.19428,-4.91981841704,0.06258618561500029,4.982404602655,0.3445112901647782
000003676,CCN(CC(=O)Nc1c(C)cccc1C)CC,C14H22N2O,"InChI=1S/C14H22N2O/c1-5-16(6-2)10-13(17)15-14-11(3)8-7-9-12(14)4/h7-9H,5-6,10H2,1-4H3,(H,15,17)",234.33728,-5.9919469880100005,-0.035374800565000086,5.956572187445,3.5895255224948603
000003677,CNC(Cc1ccccc1)(C)C,C11H17N,"InChI=1S/C11H17N/c1-11(2,12-3)9-10-7-5-4-6-8-10/h4-8,12H,9H2,1-3H3",163.25938,-5.7388811070450005,0.08707643215999994,5.8259575392050005,0.9522186666611824
000003678,CCN(CCCc1ccccc1)CCCc1ccccc1,C20H27N,"InChI=1S/C20H27N/c1-2-21(17-9-15-19-11-5-3-6-12-19)18-10-16-20-13-7-4-8-14-20/h3-8,11-14H,2,9-10,15-18H2,1H3",281.43508,-5.793303877145,0.144220340765,5.93752421791,1.3074469106931264
000003680,CC(=O)OCC(=O)C1(O)C(C)CC2C1(C)CC(O)C1(C2CCC2=CC(=O)C=CC12C)F,C24H31FO6,"InChI=1S/C24H31FO6/c1-13-9-18-17-6-5-15-10-16(27)7-8-21(15,3)23(17,25)19(28)11-22(18,4)24(13,30)20(29)12-31-14(2)26/h7-8,10,13,17-19,28,30H,5-6,9,11-12H2,1-4H3",434.4977432,-6.168820990835,-1.7496920587150004,4.41912893212,9.269606704338702
000003681,CCCCCCCCCCCCCCCCCCOCC(CO)O,C21H44O3,"InChI=1S/C21H44O3/c1-2-3-4-5-6-7-8-9-10-11-12-13-14-15-16-17-18-24-20-21(23)19-22/h21-23H,2-20H2,1H3",344.57226,-6.6695104757550006,1.8857489839649997,8.55525945972,3.3354119210793143
000003682,CC(NC(C(COc1ccc(c2c1CCC2)C)O)C)C,C17H27NO2,"InChI=1S/C17H27NO2/c1-11(2)18-13(4)16(19)10-20-17-9-8-12(3)14-6-5-7-15(14)17/h8-9,11,13,16,18-19H,5-7,10H2,1-4H3",277.40178,-5.532074580665,0.32653662059999977,5.858611201265,0.9032884064245483
000003683,OC(=O)COc1cccc(c1)C(N(C(=O)Cc1ccc(c(c1)Cl)Cl)C)CN1CCCC1,C23H26Cl2N2O4,"InChI=1S/C23H26Cl2N2O4/c1-26(22(28)12-16-7-8-19(24)20(25)11-16)21(14-27-9-2-3-10-27)17-5-4-6-18(13-17)31-15-23(29)30/h4-8,11,13,21H,2-3,9-10,12,14-15H2,1H3,(H,29,30)",465.36954,-6.16609985233,-0.9469561997399998,5.219143652590001,5.611791753772943
000003686,OCCCCCCCCCCC1=C(C)C(=O)C(=C(C1=O)OC)OC,C19H30O5,"InChI=1S/C19H30O5/c1-14-15(12-10-8-6-4-5-7-9-11-13-20)17(22)19(24-3)18(23-2)16(14)21/h20H,4-13H2,1-3H3",338.4385,-5.651804674885,-2.8653588457650003,2.7864458291199994,1.8787239865126544
000003688,CC1Nc2ccc(cc2S(=O)(=O)N1)Cl,C8H9ClN2O2S,"InChI=1S/C8H9ClN2O2S/c1-5-10-7-3-2-6(9)4-8(7)14(12,13)11-5/h2-5,10-11H,1H3",232.68726,-5.8259575392050005,-1.0911765405049998,4.734780998700001,7.309301130301924
000003689,Oc1ccc(cc1)C(C(N1CCC(CC1)Cc1ccccc1)C)O,C21H27NO2,"InChI=1S/C21H27NO2/c1-16(21(24)19-7-9-20(23)10-8-19)22-13-11-18(12-14-22)15-17-5-3-2-4-6-17/h2-10,16,18,21,23-24H,11-15H2,1H3",325.44458,-5.559285965715,-0.04898049309000019,5.510305472625,1.701752628457203
000003690,ClCCNP1(=O)OCCCN1CCCl,C7H15Cl2N2O2P,"InChI=1S/C7H15Cl2N2O2P/c8-2-4-10-14(12)11(6-3-9)5-1-7-13-14/h1-7H2,(H,10,12)",261.085961,-6.98788368084,0.5659968090399996,7.553880489879999,6.116468882982157
000003691,COC1=CC(=O)C(=C(C1=O)CC1(C)C(C)CCC2(C1CCCC2=C)C)O,C22H30O4,"InChI=1S/C22H30O4/c1-13-7-6-8-18-21(13,3)10-9-14(2)22(18,4)12-15-19(24)16(23)11-17(26-5)20(15)25/h11,14,18,24H,1,6-10,12H2,2-5H3",358.4712,-6.310320193095,-2.8000515216450004,3.51026867145,4.172886647629672
000003693,CCOC(=O)C(NC(C(=O)N1C(=O)N(CC1C(=O)O)C)C)CCc1ccccc1,C20H27N3O6,"InChI=1S/C20H27N3O6/c1-4-29-19(27)15(11-10-14-8-6-5-7-9-14)21-13(2)17(24)23-16(18(25)26)12-22(3)20(23)28/h5-9,13,15-16,21H,4,10-12H2,1-3H3,(H,25,26)",405.44488,-6.23140717645,-0.7700821969150002,5.461324979535,1.6344997291752605
000003696,CN(CCCN1c2ccccc2CCc2c1cccc2)C,C19H24N2,"InChI=1S/C19H24N2/c1-20(2)14-7-15-21-18-10-5-3-8-16(18)12-13-17-9-4-6-11-19(17)21/h3-6,8-11H,7,12-15H2,1-2H3",280.40726,-5.02322168023,-0.03809593906999975,4.98512574116,1.8139005028495911
000003697,OC1C(O)C(NC1c1c[nH]c2c1[nH]c(N)nc2=O)COP(=O)(O)O,C11H16N5O7P,"InChI=1S/C11H16N5O7P/c12-11-15-5-3(1-13-7(5)10(19)16-11)6-9(18)8(17)4(14-6)2-23-24(20,21)22/h1,4,6,8-9,13-14,17-18H,2H2,(H2,20,21,22)(H3,12,15,16,19)",361.247801,-5.6817371984400005,-0.47892037687999967,5.202816821560001,6.229455147358073
000003698,O=c1[nH]cc(cc1N)c1ccncc1,C10H9N3O,"InChI=1S/C10H9N3O/c11-9-5-8(6-13-10(9)14)7-1-3-12-4-2-7/h1-6H,11H2,(H,13,14)",187.19796,-5.32254691578,-1.0122635238599997,4.3102833919200005,0.8568062340628715
000003699,OP(=O)(C(P(=O)(O)O)NC1CCCCCC1)O,C8H19NO6P2,"InChI=1S/C8H19NO6P2/c10-16(11,12)8(17(13,14)15)9-7-5-3-1-2-4-6-7/h7-9H,1-6H2,(H2,10,11,12)(H2,13,14,15)",287.187082,-6.75930804642,0.2204122189050004,6.979720265325001,4.816573114290387
000003700,COc1c(OC)cc2c(c1N)C(=O)C(=Cc1cc(C)c(c(c1)C)O)C2,C20H21NO4,"InChI=1S/C20H21NO4/c1-10-5-12(6-11(2)18(10)22)7-14-8-13-9-15(24-3)20(25-4)17(21)16(13)19(14)23/h5-7,9,22H,8,21H2,1-4H3",339.38504,-5.23002820661,-1.2462814352900002,3.98374677132,3.64635159856383
000003701,CCC(=CC=CC1C=CC2C(C1C(=O)c1[nH]ccc1)CCC2CC)C1OC(CCC1C)C(C(=O)O)C,C31H43NO4,"InChI=1S/C31H43NO4/c1-5-21-13-16-25-24(21)15-14-23(28(25)29(33)26-11-8-18-32-26)10-7-9-22(6-2)30-19(3)12-17-27(36-30)20(4)31(34)35/h7-11,14-15,18-21,23-25,27-28,30,32H,5-6,12-13,16-17H2,1-4H3,(H,34,35)",493.67742,-5.798746154155,-1.2081854962199996,4.590560657935001,3.6259024944162523
000003702,CC1Cc2c(N1NC(=O)c1ccc(c(c1)S(=O)(=O)N)Cl)cccc2,C16H16ClN3O3S,"InChI=1S/C16H16ClN3O3S/c1-10-8-11-4-2-3-5-14(11)20(10)19-16(21)12-6-7-13(17)15(9-12)24(18,22)23/h2-7,9-10H,8H2,1H3,(H,19,21)(H2,18,22,23)",365.83454,-5.3579217163449995,-1.6326831029999997,3.7252386133449997,1.469972324077906
000003703,CNC1CC(c2c1cccc2)c1ccc(c(c1)Cl)Cl,C16H15Cl2N,"InChI=1S/C16H15Cl2N/c1-19-16-9-13(11-4-2-3-5-12(11)16)10-6-7-14(17)15(18)8-10/h2-8,13,16,19H,9H2,1H3",292.203,-5.94296649492,-0.6367464101699998,5.3062200847500005,3.5011838986357176
000003704,C1COC(CN1)COc1cccc2c1CC=C2,C14H17NO2,"InChI=1S/C14H17NO2/c1-3-11-4-2-6-14(13(11)5-1)17-10-12-9-15-7-8-16-12/h1-4,6,12,15H,5,7-10H2",231.29028,-5.442277010000001,-0.454430130335,4.987846879665001,2.7068899360952967
000003710,NC(=O)Cc1c(C)n(c2c1cc(OCCCC(=O)O)cc2)Cc1ccccc1,C22H24N2O4,"InChI=1S/C22H24N2O4/c1-15-18(13-21(23)25)19-12-17(28-11-5-8-22(26)27)9-10-20(19)24(15)14-16-6-3-2-4-7-16/h2-4,6-7,9-10,12H,5,8,11,13-14H2,1H3,(H2,23,25)(H,26,27)",380.43696,-5.197374544550001,-0.4408244378099999,4.756550106740001,5.3361958417630255
000003711,NC(=O)Cc1c(C)n(c2c1cc(OCCCP(=O)(O)O)cc2)Cc1ccccc1,C21H25N2O5P,"InChI=1S/C21H25N2O5P/c1-15-18(13-21(22)24)19-12-17(28-10-5-11-29(25,26)27)8-9-20(19)23(15)14-16-6-3-2-4-7-16/h2-4,6-9,12H,5,10-11,13-14H2,1H3,(H2,22,24)(H2,25,26,27)",416.407361,-5.113019250895,-0.35646914415499964,4.756550106740001,4.6626336998960145
000003712,OCc1c[nH]c2c1cccc2,C9H9NO,"InChI=1S/C9H9NO/c11-6-7-5-10-9-4-2-1-3-8(7)9/h1-5,10-11H,6H2",147.17386,-5.464046118040001,-0.31020978957,5.153836328470001,2.5777849184239554
000003713,OP(=O)(OCCCc1c[nH]c2c1cccc2)O,C11H14NO4P,"InChI=1S/C11H14NO4P/c13-17(14,15)16-7-3-4-9-8-12-11-6-2-1-5-10(9)11/h1-2,5-6,8,12H,3-4,7H2,(H2,13,14,15)",255.206921,-5.38241196289,-0.18503741834000031,5.19737454455,3.1821477918982644
000003714,N#CCCn1c2ccccc2c2c1c1[nH]c3c(c1c1c2CNC1=O)cccc3,C23H16N4O,"InChI=1S/C23H16N4O/c24-10-5-11-27-17-9-4-2-7-14(17)18-15-12-25-23(28)20(15)19-13-6-1-3-8-16(13)26-21(19)22(18)27/h1-4,6-9,26H,5,11-12H2,(H,25,28)",364.39934,-5.55656482721,-1.3524058369849996,4.204158990225,4.462689678506562
000003715,COc1ccc2c(c1)c(CC(=O)O)c(n2C(=O)c1ccc(cc1)Cl)C,C19H16ClNO4,"InChI=1S/C19H16ClNO4/c1-11-15(10-18(22)23)16-9-14(25-2)7-8-17(16)21(11)19(24)12-3-5-13(20)6-4-12/h3-9H,10H2,1-2H3,(H,22,23)",357.78764,-5.896707140335001,-1.4666936541950006,4.43001348614,6.42128366750146
000003717,O=Cc1ccc2c(c1)c(CC(=O)O)c(n2C(=O)c1ccc(cc1)Cl)C,C19H14ClNO4,"InChI=1S/C19H14ClNO4/c1-11-15(9-18(23)24)16-8-12(10-22)2-7-17(16)21(11)19(25)13-3-5-14(20)6-4-13/h2-8,10H,9H2,1H3,(H,23,24)",355.77176,-6.38379093273,-1.9238449230350003,4.459946009695,5.419564956926801
000003718,OC(=O)C(c1ccc(cc1)N1Cc2c(C1=O)cccc2)C,C17H15NO3,"InChI=1S/C17H15NO3/c1-11(17(20)21)12-6-8-14(9-7-12)18-10-13-4-2-3-5-15(13)16(18)19/h2-9,11H,10H2,1H3,(H,20,21)",281.3059,-6.0137160960500005,-1.537443255325,4.4762728407250005,8.449622501381407
000003719,OCC1=CC2C3C(C3(C)C)CC(C3(C(C1O)(O)C(O)C(=C3)C)C2=O)C,C20H28O5,"InChI=1S/C20H28O5/c1-9-7-19-10(2)5-13-14(18(13,3)4)12(17(19)24)6-11(8-21)16(23)20(19,25)15(9)22/h6-7,10,12-16,21-23,25H,5,8H2,1-4H3",348.43332,-6.250455145985,-0.5387854239900003,5.7116697219949994,1.826320919333456