mol_id,SMILES,formula,inchi,mass,HOMO(eV),LUMO(eV),GAP(eV),dipole_moment
000000243,OC(=O)c1ccccc1,C7H6O2,"InChI=1S/C7H6O2/c8-7(9)6-4-2-1-3-5-6/h1-5H,(H,8,9)",122.12134,-7.15115199114,-1.0775708479799997,6.07358114316,4.817880899104191
000000244,OCc1ccccc1,C7H8O,"InChI=1S/C7H8O/c8-6-7-4-2-1-3-5-7/h1-5,8H,6H2",108.13782,-6.5470592430300005,-0.10612440169500026,6.440934841335,1.5148219942174725
000000245,OCC1OC(O)C(C(C1OC1OC(CO)C(C(C1O)O)O)O)NC(=O)C,C14H25NO11,"InChI=1S/C14H25NO11/c1-4(18)15-7-9(20)12(6(3-17)24-13(7)23)26-14-11(22)10(21)8(19)5(2-16)25-14/h5-14,16-17,19-23H,2-3H2,1H3,(H,15,18)",383.3484,-6.674952752765,0.519737454455,7.19469020722,6.028982976446525
000000246,O=C1CCC2C1(C)CCC1C2CCC2C1(C)CCC(C2)OS(=O)(=O)O,C19H30O5S,"InChI=1S/C19H30O5S/c1-18-9-7-13(24-25(21,22)23)11-12(18)3-4-14-15-5-6-17(20)19(15,2)10-8-16(14)18/h12-16H,3-11H2,1-2H3,(H,21,22,23)",370.5035,-6.32392588562,-0.4081707757500004,5.915755109869999,3.4857641799124908
000000247,[O-]C(=O)C[N+](C)(C)C,C5H11NO2,"InChI=1S/C5H11NO2/c1-6(2,3)4-5(7)8/h4H2,1-3H3",117.14634,-5.238191622125,0.9496773382450003,6.18786896037,10.439948119519991
000000252,CC(C(C1=Nc2c(NC1)[nH]c(nc2=O)N)O)O,C9H13N5O3,"InChI=1S/C9H13N5O3/c1-3(15)6(16)4-2-11-7-5(12-4)8(17)14-9(10)13-7/h3,6,15-16H,2H2,1H3,(H4,10,11,13,14,17)",239.23122,-5.700785167975,-1.2353968812699998,4.465388286705,8.237489260202166
000000253,OC(=O)CCCCC1SCC2C1NC(=O)N2,C10H16N2O3S,"InChI=1S/C10H16N2O3S/c13-8(14)4-2-1-3-7-9-6(5-16-7)11-10(15)12-9/h6-7,9H,1-5H2,(H,13,14)(H2,11,12,15)",244.31064,-6.2803876695400005,0.01904796953500032,6.299435639075001,1.2694626070593809
000000254,Oc1c(O)cccc1c1ccccc1,C12H10O2,"InChI=1S/C12H10O2/c13-11-8-4-7-10(12(11)14)9-5-2-1-3-6-9/h1-8,13-14H",186.2066,-5.51846888814,-0.497968346415,5.020500541725,2.8505091054618643
000000255,OP(=O)(Oc1ccc(cc1)[N+](=O)[O-])Oc1ccc(cc1)[N+](=O)[O-],C12H9N2O8P,"InChI=1S/C12H9N2O8P/c15-13(16)9-1-5-11(6-2-9)21-23(19,20)22-12-7-3-10(4-8-12)14(17)18/h1-8H,(H,19,20)",340.182221,-7.401496733600001,-2.5224953941350003,4.879001339465001,5.558663473290499
000000258,NC(CC(=O)NC1C=CC(OC1C(=O)O)n1ccc(nc1=O)N)CCN(C(=N)N)C,C17H26N8O5,"InChI=1S/C17H26N8O5/c1-24(16(20)21)6-4-9(18)8-12(26)22-10-2-3-13(30-14(10)15(27)28)25-7-5-11(19)23-17(25)29/h2-3,5,7,9-10,13-14H,4,6,8,18H2,1H3,(H3,20,21)(H,22,26)(H,27,28)(H2,19,23,29)",422.43894,-5.504863195615,-1.4095497455899997,4.095313450025,2.597433724635722
000000261,CCCC=O,C4H8O,"InChI=1S/C4H8O/c1-2-3-4-5/h4H,2-3H2,1H3",72.10572,-6.898086110175,-0.5605545320300003,6.337531578145,2.464359432384205
000000262,CC(C(O)C)O,C4H10O2,"InChI=1S/C4H10O2/c1-3(5)4(2)6/h3-6H,1-2H3",90.121,-6.79196170848,1.6979904271199997,8.4899521356,2.2806796628930597
000000263,CCCCO,C4H10O,"InChI=1S/C4H10O/c1-2-3-4-5/h5H,2-4H2,1H3",74.1216,-6.957951157285,2.1088823413749997,9.06683349866,1.705329525169256
000000264,CCCC(=O)O,C4H8O2,"InChI=1S/C4H8O2/c1-2-3-4(5)6/h2-3H2,1H3,(H,5,6)",88.10512,-7.47224633473,0.20136424937000008,7.6736105841,4.212743594179925
000000266,CCCC(=O)OP(=O)(O)O,C4H9O5P,"InChI=1S/C4H9O5P/c1-2-3-4(5)9-10(6,7)8/h2-3H2,1H3,(H2,6,7,8)",168.085021,-8.02191631274,-0.476199238375,7.545717074365,1.979976820261035
000000273,NCCCCCN,C5H14N2,InChI=1S/C5H14N2/c6-4-2-1-3-5-7/h1-7H2,102.17806,-6.108955943725,2.337457975795001,8.446413919520001,1.0750383271888495
000000274,OC1C2OP(=O)(O)OCC2OC1n1cnc2c1ncnc2N,C10H12N5O6P,"InChI=1S/C10H12N5O6P/c11-8-5-9(13-2-12-8)15(3-14-5)10-6(16)7-4(20-10)1-19-22(17,18)21-7/h2-4,6-7,10,16H,1H2,(H,17,18)(H2,11,12,13)",329.205941,-6.17698440635,-0.9796098618000002,5.19737454455,5.118379485225866
000000275,OC(=O)C(CCON=C(N)N)N,C5H12N4O3,"InChI=1S/C5H12N4O3/c6-3(4(10)11)1-2-12-9-5(7)8/h3H,1-2,6H2,(H,10,11)(H4,7,8,9)",176.17378,-6.04636975811,0.3510268671450003,6.397396625255,6.45856560405869
000000277,NC(=O)O,CH3NO2,"InChI=1S/CH3NO2/c2-1(3)4/h2H2,(H,3,4)",61.04002,-7.502178858285,0.8626009060850004,8.36477976437,5.220112390399559
000000278,NC(=O)OP(=O)(O)O,CH4NO5P,"InChI=1S/CH4NO5P/c2-1(3)7-8(4,5)6/h(H2,2,3)(H2,4,5,6)",141.019921,-8.008310620215001,0.3782382521950005,8.386548872410001,5.819172097301557
000000279,OC(=O)CC(C(=O)O)NC(=O)N,C5H8N2O5,"InChI=1S/C5H8N2O5/c6-5(12)7-2(4(10)11)1-3(8)9/h2H,1H2,(H,8,9)(H,10,11)(H3,6,7,12)",176.12742,-7.191969068714999,-0.6394675486750003,6.552501520039999,4.5051956448911294
000000280,O=C=O,CO2,InChI=1S/CO2/c2-1-3,44.0095,-10.065491329995,0.7945724434599999,10.860063773455,1.2e-05
000000281,[C-]#[O+],CO,InChI=1S/CO/c1-2,28.0101,-10.11175068458,-0.6095350251199996,9.502215659460001,0.05429
000000282,OC(=O)CCC1=CC=CC(C1O)O,C9H12O4,"InChI=1S/C9H12O4/c10-7-3-1-2-6(9(7)13)4-5-8(11)12/h1-3,7,9-10,13H,4-5H2,(H,11,12)",184.18918,-6.33481043964,-1.385059499045,4.949750940595,4.79122523724955
000000284,OC=O,CH2O2,"InChI=1S/CH2O2/c2-1-3/h1H,(H,2,3)",46.02538,-7.891301664499999,-0.1714317258150002,7.719869938684999,3.9298848217937636
000000286,NOCC(=O)O,C2H5NO3,"InChI=1S/C2H5NO3/c3-6-1-2(4)5/h1,3H2,(H,4,5)",91.066,-7.074960113,0.1795951413300001,7.2545552543300005,5.126955565228648
000000287,OC(C(C(=O)CNc1ccccc1C(=O)O)O)COP(=O)(O)O,C12H16NO9P,"InChI=1S/C12H16NO9P/c14-9(11(16)10(15)6-22-23(19,20)21)5-13-8-4-2-1-3-7(8)12(17)18/h1-4,10-11,13,15-16H,5-6H2,(H,17,18)(H2,19,20,21)",349.230501,-5.7143908605,-1.48574162373,4.22864923677,3.128001213134995
000000288,OC(C[N+](C)(C)C)CC(=O)[O-],C7H15NO3,"InChI=1S/C7H15NO3/c1-8(2,3)5-6(9)4-7(10)11/h6,9H,4-5H2,1-3H3",161.1989,-5.145672912955,0.7319862578449996,5.877659170799999,10.556063872120044
000000289,Oc1ccccc1O,C6H6O2,"InChI=1S/C6H6O2/c7-5-3-1-2-4-6(5)8/h1-4,7-8H",110.11064,-5.553843688705,0.20952766488499996,5.76337135359,2.492786382179789
000000290,OC1C(COP(=O)(OP(=O)(O)O)O)OC(C1O)n1ccc(nc1=O)N,C9H15N3O11P2,"InChI=1S/C9H15N3O11P2/c10-5-1-2-12(9(15)11-5)8-7(14)6(13)4(22-8)3-21-25(19,20)23-24(16,17)18/h1-2,4,6-8,13-14H,3H2,(H,19,20)(H2,10,11,15)(H2,16,17,18)",403.176422,-6.50896330396,-1.385059499045,5.123903804915,7.080954128017213
000000294,OCC1OC(O)C(C(C1OC1OC(CO)C(C(C1O)O)O)O)O,C12H22O11,"InChI=1S/C12H22O11/c13-1-3-5(15)6(16)9(19)12(22-3)23-10-4(2-14)21-11(20)8(18)7(10)17/h3-20H,1-2H2",342.29648,-6.658625921735,1.1483204491099999,7.806946370845,3.785399693452463
000000295,OC1C2OP(=O)(O)OCC2OC1n1cnc2c1[nH]c(N)nc2=O,C10H12N5O7P,"InChI=1S/C10H12N5O7P/c11-10-13-7-4(8(17)14-10)12-2-15(7)9-5(16)6-3(21-9)1-20-23(18,19)22-6/h2-3,5-6,9,16H,1H2,(H,18,19)(H3,11,13,14,17)",345.205341,-5.858611201265,-0.45170899183000035,5.406902209435,9.561042897909934
000000296,O=CC(C(=O)O)C,C4H6O3,"InChI=1S/C4H6O3/c1-3(2-5)4(6)7/h2-3H,1H3,(H,6,7)",102.08864,-7.455919503700001,-1.8313262138650002,5.624593289835,4.5459350027797365
000000297,C,CH4,InChI=1S/CH4/h1H4,16.04246,-10.626045862025,3.2653662059999995,13.891412068025,5.806892456383191e-05
000000298,OCC(C(c1ccc(cc1)[N+](=O)[O-])O)NC(=O)C(Cl)Cl,C11H12Cl2N2O5,"InChI=1S/C11H12Cl2N2O5/c12-10(13)11(18)14-8(5-16)9(17)6-1-3-7(4-2-6)15(19)20/h1-4,8-10,16-17H,5H2,(H,14,18)",323.12938,-7.213738176755,-2.5034474246,4.710290752155,4.485052038835782
000000299,O=C1C2(Cl)C3(C4(C1(Cl)C1(C2(C3(Cl)C(C41Cl)(Cl)Cl)Cl)Cl)Cl)Cl,C10Cl10O,"InChI=1S/C10Cl10O/c11-2-1(21)3(12)6(15)4(2,13)8(17)5(2,14)7(3,16)9(6,18)10(8,19)20",490.6364,-7.64095692204,-2.2748717901799997,5.36608513186,1.0356781086505593
000000300,OC(=O)CCl,C2H3ClO2,"InChI=1S/C2H3ClO2/c3-1-2(4)5/h1H2,(H,4,5)",94.49702,-7.801504093835001,-0.6095350251200005,7.191969068715,3.0698868195545903
000000301,Oc1ccc(c(c1)Cl)O,C6H5ClO2,"InChI=1S/C6H5ClO2/c7-5-3-4(8)1-2-6(5)9/h1-3,8-9H",144.5557,-5.553843688705,-0.3945650832250003,5.15927860548,1.5972157115950243
000000302,OC1CCC2(C(C1)CC(=O)C1C2CC(O)C2(C1CCC2C(CCC(=O)O)C)C)C,C24H38O5,"InChI=1S/C24H38O5/c1-13(4-7-21(28)29)16-5-6-17-22-18(12-20(27)24(16,17)3)23(2)9-8-15(25)10-14(23)11-19(22)26/h13-18,20,22,25,27H,4-12H2,1-3H3,(H,28,29)",406.55552,-6.307599054590001,-0.48708379239500044,5.820515262195,2.349551930975138
000000303,OC1CCC2(C(C1)CC(C1C2CC(O)C2(C1CCC2C(CCC(=O)O)C)C)O)C,C24H40O5,"InChI=1S/C24H40O5/c1-13(4-7-21(28)29)16-5-6-17-22-18(12-20(27)24(16,17)3)23(2)9-8-15(25)10-14(23)11-19(22)26/h13-20,22,25-27H,4-12H2,1-3H3,(H,28,29)",408.5714,-6.533453550505,-0.3809593907000002,6.152494159805,5.2887751537304935
000000304,CC(CCCC(C1CCC2C1(C)CCC1C2CC=C2C1(C)CCC(C2)O)C)C,C27H46O,"InChI=1S/C27H46O/c1-18(2)7-6-8-19(3)23-11-12-24-22-10-9-20-17-21(28)13-15-26(20,4)25(22)14-16-27(23,24)5/h9,18-19,21-25,28H,6-8,10-17H2,1-5H3",386.65354,-6.11167708223,0.7156594268149998,6.827336509045,1.7971466996261045
000000306,OC1C=CC(=CC1OC(=C)C(=O)O)C(=O)O,C10H10O6,"InChI=1S/C10H10O6/c1-5(9(12)13)16-8-4-6(10(14)15)2-3-7(8)11/h2-4,7-8,11H,1H2,(H,12,13)(H,14,15)",226.1828,-7.025979619909999,-2.2558238206449994,4.770155799265,4.947028854194707
000000307,O=CC=Cc1ccccc1,C9H8O,InChI=1S/C9H8O/c10-8-4-7-9-5-2-1-3-6-9/h1-8H,132.15922,-6.604203151635,-1.8748644299450001,4.72933872169,3.9905699999010165
000000308,OCC=Cc1ccccc1,C9H10O,"InChI=1S/C9H10O/c10-8-4-7-9-5-2-1-3-6-9/h1-7,10H,8H2",134.1751,-6.119840497745,-0.6530732412000004,5.466767256544999,1.5944852466253803
000000309,OC(=O)CC(=CC(=O)O)C(=O)O,C6H6O6,"InChI=1S/C6H6O6/c7-4(8)1-3(6(11)12)2-5(9)10/h1H,2H2,(H,7,8)(H,9,10)(H,11,12)",174.10824,-7.70082196915,-2.76467672108,4.93614524807,3.5092587091957186
000000310,OC(=O)C=CC=CC(=O)O,C6H6O4,"InChI=1S/C6H6O4/c7-5(8)3-1-2-4-6(9)10/h1-4H,(H,7,8)(H,9,10)",142.10944,-7.518505689315,-2.8844068152999993,4.634098874015001,0.0009111037262573346
000000311,OC(=O)C(CC(=O)O)(CC(=O)O)O,C6H8O7,"InChI=1S/C6H8O7/c7-3(8)1-6(13,5(11)12)2-4(9)10/h13H,1-2H2,(H,7,8)(H,9,10)(H,11,12)",192.12352,-7.8967439415100005,-1.053080601435,6.843663340075,2.379870950523368
000000313,Cl,ClH,InChI=1S/ClH/h1H,36.46094,-9.015131867065,0.19592197236000075,9.211053839425,1.472084
000000314,OC1C(O)C(OC1n1ccc(nc1=O)N)COP(=O)(O)O,C9H14N3O8P,"InChI=1S/C9H14N3O8P/c10-5-1-2-12(9(15)11-5)8-7(14)6(13)4(20-8)3-19-21(16,17)18/h1-2,4,6-8,13-14H,3H2,(H2,10,11,15)(H2,16,17,18)",323.196521,-6.212359206915,-1.0993399560199997,5.113019250895,4.532537131151382
000000320,OCC1OC(C(C1O)O)n1cnc2c1NC=NCC2O,C11H16N4O5,"InChI=1S/C11H16N4O5/c16-2-6-8(18)9(19)11(20-6)15-4-14-7-5(17)1-12-3-13-10(7)15/h3-6,8-9,11,16-19H,1-2H2,(H,12,13)",284.26854,-5.477651810565001,-0.1795951413300001,5.298056669235001,6.182172032897823
000000322,OC(=O)C=Cc1ccc(cc1)O,C9H8O3,"InChI=1S/C9H8O3/c10-8-4-1-7(2-5-8)3-6-9(11)12/h1-6,10H,(H,11,12)",164.15802,-6.08990797419,-1.7660188897450002,4.323889084445,6.7693659976209
000000323,O=c1ccc2c(o1)cccc2,C9H6O2,InChI=1S/C9H6O2/c10-9-6-5-7-3-1-2-4-8(7)11-9/h1-6H,146.14274,-6.416444594790001,-1.9456140310749994,4.470830563715001,4.703560104801787
000000325,OCc1ccc(cc1)C(C)C,C10H14O,"InChI=1S/C10H14O/c1-8(2)10-5-3-9(7-11)4-6-10/h3-6,8,11H,7H2,1-2H3",150.21756,-6.29127222356,-0.04353821607999997,6.24773400748,1.762068280104094
000000326,O=Cc1ccc(cc1)C(C)C,C10H12O,"InChI=1S/C10H12O/c1-8(2)10-5-3-9(7-11)4-6-10/h3-8H,1-2H3",148.20168,-6.832778786055,-1.55104894785,5.281729838205,3.710934813579053
000000327,OC(=O)c1cc(C(=O)O)c2c([nH]1)c(O)c(=O)c1c2[nH]c(c1)C(=O)O,C14H8N2O8,"InChI=1S/C14H8N2O8/c17-10-4-2-6(14(23)24)15-8(4)7-3(12(19)20)1-5(13(21)22)16-9(7)11(10)18/h1-2,15-16,18H,(H,19,20)(H,21,22)(H,23,24)",332.22192,-5.5946607662800005,-3.170126358325,2.4245344079550004,3.4535775040001635
000000328,OC(=O)C(c1ccc(cc1)O)O,C8H8O4,"InChI=1S/C8H8O4/c9-6-3-1-5(2-4-6)7(10)8(11)12/h1-4,7,9-10H,(H,11,12)",168.14672,-6.18242668336,-0.4816415153850002,5.700785167975,4.41054518910191
000000329,CSCC(C(C(=O)COP(=O)(O)O)O)O,C6H13O7PS,"InChI=1S/C6H13O7PS/c1-15-3-5(8)6(9)4(7)2-13-14(10,11)12/h5-6,8-9H,2-3H2,1H3,(H2,10,11,12)",260.201981,-6.00827381904,-1.7986725518050006,4.209601267235,2.7914335659393723
000000330,CC(CCCC(C1CCC2C1(C)CCC1=C2CCC2C1(C)CCC(C2)O)C)C,C27H46O,"InChI=1S/C27H46O/c1-18(2)7-6-8-19(3)23-11-12-24-22-10-9-20-17-21(28)13-15-26(20,4)25(22)14-16-27(23,24)5/h18-21,23-24,28H,6-17H2,1-5H3",386.65354,-5.94296649492,0.7564765043900001,6.69944299931,1.8919845743396007
000000331,CC(CC(CC(=O)O)N)N,C6H14N2O2,"InChI=1S/C6H14N2O2/c1-4(7)2-5(8)3-6(9)10/h4-5H,2-3,7-8H2,1H3,(H,9,10)",146.18756,-6.04636975811,0.059865047109999736,6.10623480522,4.509162471123212
000000332,COc1cc(C=C)ccc1O,C9H10O2,"InChI=1S/C9H10O2/c1-3-7-4-5-8(10)9(6-7)11-2/h3-6,10H,1H2,2H3",150.1745,-5.330710331295,-0.2557870194699996,5.074923311825001,2.600618330978423
000000333,O=c1[nH]c(NCC(C(C(COP(=O)(O)O)O)O)O)c(c(=O)[nH]1)N,C9H17N4O9P,"InChI=1S/C9H17N4O9P/c10-5-7(12-9(18)13-8(5)17)11-1-3(14)6(16)4(15)2-22-23(19,20)21/h3-4,6,14-16H,1-2,10H2,(H2,19,20,21)(H3,11,12,13,17,18)",356.226441,-5.755207938075,-0.37007483667999974,5.385133101395001,6.381595060757224
000000335,Cc1ccccc1O,C7H8O,"InChI=1S/C7H8O/c1-6-4-2-3-5-7(6)8/h2-5,8H,1H3",108.13782,-5.7688136305999995,0.054422770100000406,5.8232364007,1.1389952766003906
000000336,NC(=O)NC(C(=O)O)O,C3H6N2O4,"InChI=1S/C3H6N2O4/c4-3(9)5-1(6)2(7)8/h1,6H,(H,7,8)(H3,4,5,9)",134.09074,-7.15115199114,0.11973009422000036,7.27088208536,5.764956562714501
000000337,OCC(C(C(=O)C)O)O,C5H10O4,"InChI=1S/C5H10O4/c1-3(7)5(9)4(8)2-6/h4-6,8-9H,2H2,1H3",134.1305,-6.794682846985,-0.7238228423299997,6.0708600046550005,3.515722630634277
000000338,OC(=O)c1ccccc1O,C7H6O3,"InChI=1S/C7H6O3/c8-6-4-2-1-3-5(6)7(9)10/h1-4,8H,(H,9,10)",138.12074,-6.745702353895,-1.3469635599750003,5.39873879392,6.671384936308877
000000339,NCCP(=O)(O)O,C2H8NO3P,"InChI=1S/C2H8NO3P/c3-1-2-7(4,5)6/h1-3H2,(H2,4,5,6)",125.063581,-6.45998281087,0.9170236761849999,7.377006487055,2.588736180782043
000000340,Oc1c(C)cccc1O,C7H8O2,"InChI=1S/C7H8O2/c1-5-3-2-4-6(8)7(5)9/h2-4,8-9H,1H3",124.13722,-5.488536364585,0.24490246545000005,5.733438830035,2.8000647485360046
000000341,O=C(c1cc(O)c(c(c1)O)O)Oc1cc(cc(c1O)O)C(=O)O,C14H10O9,"InChI=1S/C14H10O9/c15-7-2-6(3-8(16)11(7)18)14(22)23-10-4-5(13(20)21)1-9(17)12(10)19/h1-4,15-19H,(H,20,21)",322.2238,-6.032764065585001,-1.3959440530649996,4.636820012520001,5.715662828751448
000000342,Cc1cccc(c1)O,C7H8O,"InChI=1S/C7H8O/c1-6-3-2-4-7(8)5-6/h2-5,8H,1H3",108.13782,-5.771534769105,0.14149920226000035,5.913033971365,1.6160067918403065
000000343,OC1C2OP(=O)(OC2C(C(C1O)O)O)O,C6H11O8P,"InChI=1S/C6H11O8P/c7-1-2(8)4(10)6-5(3(1)9)13-15(11,12)14-6/h1-10H,(H,11,12)",242.120501,-7.496736581275001,0.144220340765,7.640956922040001,3.005512539630637
000000344,OC1CC(=O)C(=O)C(C1O)O,C6H8O5,"InChI=1S/C6H8O5/c7-2-1-3(8)5(10)6(11)4(2)9/h2,4,6-7,9,11H,1H2",160.12472,-6.710327553330001,-2.2612660976549996,4.449061455675001,2.915622444529298
000000345,OC(=O)CC(=C(C(=O)O)C)C(=O)O,C7H8O6,"InChI=1S/C7H8O6/c1-3(6(10)11)4(7(12)13)2-5(8)9/h2H2,1H3,(H,8,9)(H,10,11)(H,12,13)",188.13482,-7.589255290444999,-2.5388222251649992,5.05043306528,3.78886302431389
000000346,OCC1OC(Oc2ccc(cc2)O)C(C(C1O)O)O,C12H16O7,"InChI=1S/C12H16O7/c13-5-8-9(15)10(16)11(17)12(19-8)18-7-3-1-6(14)2-4-7/h1-4,8-17H,5H2",272.25124,-5.94840877193,-0.5034106234250002,5.444998148504999,2.757078913048011
000000347,OCC1OC(Oc2cccc(c2)CO)C(C(C1O)O)O,C13H18O7,"InChI=1S/C13H18O7/c14-5-7-2-1-3-8(4-7)19-13-12(18)11(17)10(16)9(6-15)20-13/h1-4,9-18H,5-6H2",286.27782,-6.381069794225,-0.3510268671450003,6.030042927079999,3.2504213088659757
000000348,OC1C(OC(C(C1O)O)COP(=O)(O)O)Oc1ccc(cc1)O,C12H17O10P,"InChI=1S/C12H17O10P/c13-6-1-3-7(4-2-6)21-12-11(16)10(15)9(14)8(22-12)5-20-23(17,18)19/h1-4,8-16H,5H2,(H2,17,18,19)",352.231141,-6.04636975811,-0.4571512688399997,5.58921848927,3.013503243990456
000000349,OCC1OC(O)C(C(=O)C1O)O,C6H10O6,"InChI=1S/C6H10O6/c7-1-2-3(8)4(9)5(10)6(11)12-2/h2-3,5-8,10-11H,1H2",178.14,-7.042306450939999,-1.3605692525000004,5.681737198439999,2.3968027208057823
000000350,SCCCCCCC(=O)NC(C(OP(=O)(O)O)C)C(=O)O,C11H22NO7PS,"InChI=1S/C11H22NO7PS/c1-8(19-20(16,17)18)10(11(14)15)12-9(13)6-4-2-3-5-7-21/h8,10,21H,2-7H2,1H3,(H,12,13)(H,14,15)(H2,16,17,18)",343.333641,-5.81235184668,-0.6775634877450001,5.134788358935,1.8960135898357904
000000351,O=C(NC(C(OP(=O)(O)O)C)C(=O)O)CCCCCCSSCCS(=O)(=O)O,C13H26NO10PS3,"InChI=1S/C13H26NO10PS3/c1-10(24-25(18,19)20)12(13(16)17)14-11(15)6-4-2-3-5-7-26-27-8-9-28(21,22)23/h10,12H,2-9H2,1H3,(H,14,15)(H,16,17)(H2,18,19,20)(H,21,22,23)",483.515001,-6.517126719475,-0.7728033354199999,5.744323384055,6.991323816695161
000000354,OC(=O)CCC=CC(=O)C(=O)O,C7H8O5,"InChI=1S/C7H8O5/c8-5(7(11)12)3-1-2-4-6(9)10/h1,3H,2,4H2,(H,9,10)(H,11,12)",172.13542,-7.202853622735,-2.85175315324,4.351100469495,5.357006705328826
000000355,Oc1ccc(cc1)C(=O)C(=O)O,C8H6O4,"InChI=1S/C8H6O4/c9-6-3-1-5(2-4-6)7(10)8(11)12/h1-4,9H,(H,11,12)",166.13084,-6.73753893838,-2.429976684965,4.307562253415,3.9549608476036777
000000356,CCCCCCCC,C8H18,"InChI=1S/C8H18/c1-3-5-7-8-6-4-2/h3-8H2,1-2H3",114.22852,-7.80422523234,2.4626303470249997,10.266855579365,7.490660852021001e-05
000000357,ClC1=CC(Cl)C(=CC1Cl)Cl,C6H4Cl4,"InChI=1S/C6H4Cl4/c7-3-1-4(8)6(10)2-5(3)9/h1-3,6H",217.90796,-7.409660149115,-1.6898270116049998,5.71983313751,5.418486873657626e-05
000000358,CC(CC(=O)CC(=O)O)N,C6H11NO3,"InChI=1S/C6H11NO3/c1-4(7)2-5(8)3-6(9)10/h4H,2-3,7H2,1H3,(H,9,10)",145.15644,-6.31848360861,-1.2353968812699998,5.08308672734,2.283793597234435
000000359,Oc1cc(O)cc(c1)O,C6H6O3,"InChI=1S/C6H6O3/c7-4-1-5(8)3-6(9)2-4/h1-3,7-9H",126.11004,-5.7606502150850005,0.6313041331600004,6.391954348245001,0.000181738823590338
000000360,OCC1OC(OP(=O)(OCCC(CCCC=C(CC)C)C)O)C(C(C1O)O)O,C18H35O9P,"InChI=1S/C18H35O9P/c1-4-12(2)7-5-6-8-13(3)9-10-25-28(23,24)27-18-17(22)16(21)15(20)14(11-19)26-18/h7,13-22H,4-6,8-11H2,1-3H3,(H,23,24)",426.438861,-6.168820990835,0.8163415514999999,6.985162542335,4.153616576678931
000000361,OC1CC(=CC(=O)C1)O,C6H8O3,"InChI=1S/C6H8O3/c7-4-1-5(8)3-6(9)2-4/h1,6-7,9H,2-3H2",128.12592,-6.484473057415,-1.08301312499,5.401459932425,3.27280681694444
000000362,OC1C=Cc2c(C1O)cccc2,C10H10O2,"InChI=1S/C10H10O2/c11-9-6-5-7-3-1-2-4-8(7)10(9)12/h1-6,9-12H",162.1852,-6.092629112695,-1.10478223303,4.987846879665,2.7049692465331283
000000363,NCC=O,C2H5NO,"InChI=1S/C2H5NO/c3-1-2-4/h2H,1,3H2",59.0672,-6.57971290509,-0.6367464101699998,5.94296649492,3.215649270523606
000000364,NC(C(=O)O)CN,C3H8N2O2,"InChI=1S/C3H8N2O2/c4-1-2(5)3(6)7/h2H,1,4-5H2,(H,6,7)",104.10782,-6.5470592430300005,0.5279008699699999,7.074960113,5.0695838266732505
000000366,CC(=O)Oc1ccc2c(c1)oc(=O)cc2C,C12H10O4,"InChI=1S/C12H10O4/c1-7-5-12(14)16-11-6-9(15-8(2)13)3-4-10(7)11/h3-6H,1-2H3",218.2054,-6.23140717645,-1.8503741834000005,4.38103299305,4.108302692322219
000000368,NCCCCNCCCCN,C8H21N3,"InChI=1S/C8H21N3/c9-5-1-3-7-11-8-4-2-6-10/h11H,1-10H2",159.27244,-5.891264863325,2.2993620367250003,8.19062690005,3.129312143504064
000000370,OC(=O)c1cc(O)c(c(c1)O)O,C7H6O5,"InChI=1S/C7H6O5/c8-4-1-3(7(11)12)2-5(9)6(4)10/h1-2,8-10H,(H,11,12)",170.11954,-6.081744558675,-0.7401496733599995,5.341594885315001,5.329595788063762
000000371,OC(=O)C#CC(=O)O,C4H2O4,"InChI=1S/C4H2O4/c5-3(6)1-2-4(7)8/h(H,5,6)(H,7,8)",114.05628,-8.38654887241,-2.9388295854000006,5.447719287009999,0.00016983815825661794
000000372,O=c1cc(cc(o1)C(=O)O)C(=O)O,C7H4O6,"InChI=1S/C7H4O6/c8-5-2-3(6(9)10)1-4(13-5)7(11)12/h1-2H,(H,9,10)(H,11,12)",184.10306,-7.62463009101,-3.306183283575,4.318446807435,2.2783626808331023
000000374,OC(=O)CC(=CC(=O)C(=O)O)C(=O)O,C7H6O7,"InChI=1S/C7H6O7/c8-4(7(13)14)1-3(6(11)12)2-5(9)10/h1H,2H2,(H,9,10)(H,11,12)(H,13,14)",202.11834,-7.801504093835001,-3.8231995995250005,3.97830449431,2.812868334605621
000000376,CC(=O)CC(CC(=O)O)O,C6H10O4,"InChI=1S/C6H10O4/c1-4(7)2-5(8)3-6(9)10/h5,8H,2-3H2,1H3,(H,9,10)",146.1412,-6.5252901349900005,-0.519737454455,6.005552680535001,3.420685873067125
000000378,[O-][N+](=O)c1ccc(cc1)OP(=O)(O)O,C6H6NO6P,"InChI=1S/C6H6NO6P/c8-7(9)5-1-3-6(4-2-5)13-14(10,11)12/h1-4H,(H2,10,11,12)",219.088701,-7.110334913565,-2.2313335741000007,4.879001339464999,6.610396769602487
000000379,CCCCCCCC(=O)O,C8H16O2,"InChI=1S/C8H16O2/c1-2-3-4-5-6-7-8(9)10/h2-7H2,1H3,(H,9,10)",144.21144,-7.431429257155,0.23401791142999961,7.665447168585,4.217771928606145
000000384,CC(C(=O)O)NC(C(=O)O)CCC,C8H15NO4,"InChI=1S/C8H15NO4/c1-3-4-6(8(12)13)9-5(2)7(10)11/h5-6,9H,3-4H2,1-2H3,(H,10,11)(H,12,13)",189.209,-7.181084514695001,-0.32653662059999977,6.854547894095001,1.839220901767376