mol_id,SMILES,formula,inchi,mass,HOMO(eV),LUMO(eV),GAP(eV),dipole_moment
000004189,Clc1ccc(c(c1)Cl)COC(c1ccc(cc1Cl)Cl)Cn1cncc1,C18H14Cl4N2O,"InChI=1S/C18H14Cl4N2O/c19-13-2-1-12(16(21)7-13)10-25-18(9-24-6-5-23-11-24)15-4-3-14(20)8-17(15)22/h1-8,11,18H,9-10H2",416.12856,-6.0409274811,-0.9796098618000002,5.0613176193,3.590469327818997
000004191,CNCC1OC(OC2C(N)CC(C(C2O)OC2OCC(C(C2O)NC)(C)O)N)C(CC1O)N,C20H41N5O8,"InChI=1S/C20H41N5O8/c1-20(29)7-30-19(14(28)17(20)25-3)33-16-9(22)4-8(21)15(13(16)27)32-18-10(23)5-11(26)12(31-18)6-24-2/h8-19,24-29H,4-7,21-23H2,1-3H3",479.56824,-5.91031283286,0.8326683825299996,6.7429812153899995,1.9168018222844532
000004192,Clc1ccc2c(c1)C(=NCc1n2c(C)nc1)c1ccccc1F,C18H13ClFN3,"InChI=1S/C18H13ClFN3/c1-11-21-9-13-10-22-18(14-4-2-3-5-16(14)20)15-8-12(19)6-7-17(15)23(11)13/h2-9H,10H2,1H3",325.7673232,-5.809630708175,-1.63812538001,4.171505328165,2.8550099122489923
000004195,COc1ccc(cc1C(CNC(=O)CN)O)OC,C12H18N2O4,"InChI=1S/C12H18N2O4/c1-17-8-3-4-11(18-2)9(5-8)10(15)7-14-12(16)6-13/h3-5,10,15H,6-7,13H2,1-2H3,(H,14,16)",254.28232,-5.2137013755799995,0.1251723712299997,5.338873746809999,3.605997349101355
000004196,CC#CC1(O)CCC2C1(C)CC(c1ccc(cc1)N(C)C)C1=C3CCC(=O)C=C3CCC21,C29H35NO2,"InChI=1S/C29H35NO2/c1-5-15-29(32)16-14-26-24-12-8-20-17-22(31)11-13-23(20)27(24)25(18-28(26,29)2)19-6-9-21(10-7-19)30(3)4/h6-7,9-10,17,24-26,32H,8,11-14,16,18H2,1-4H3",429.5937,-5.200095683055,-1.31703103642,3.8830646466350003,6.09171347128704
000004197,N#Cc1cc(c2ccncc2)c([nH]c1=O)C,C12H9N3O,"InChI=1S/C12H9N3O/c1-8-11(9-2-4-14-5-3-9)6-10(7-13)12(16)15-8/h2-6H,1H3,(H,15,16)",211.21936,-6.375627517215,-2.1905164965250004,4.18511102069,7.286199789323924
000004198,COC1=C(C)C(=O)c2c(C1=O)cn(c(=O)c2)C,C12H11NO4,"InChI=1S/C12H11NO4/c1-6-10(15)7-4-9(14)13(2)5-8(7)11(16)12(6)17-3/h4-5H,1-3H3",233.22004,-6.22052262243,-2.65038890387,3.5701337185599997,3.537798355081024
000004199,Cc1cc(nnc1NCCN1CCOCC1)c1ccccc1,C17H22N4O,"InChI=1S/C17H22N4O/c1-14-13-16(15-5-3-2-4-6-15)19-20-17(14)18-7-8-21-9-11-22-12-10-21/h2-6,13H,7-12H2,1H3,(H,18,20)",298.38278,-5.499420918605,-0.7619187814000004,4.7375021372049995,3.572164572498865
000004201,Nc1cc(nc(=N)n1O)N1CCCCC1,C9H15N5O,"InChI=1S/C9H15N5O/c10-7-6-8(12-9(11)14(7)15)13-4-2-1-3-5-13/h6,11,15H,1-5,10H2",209.2483,-5.09941355837,-0.4054496372449998,4.693963921125,4.291868548186908
000004202,Nc1cc(nc([n+]1OS(=O)(=O)[O-])N)N1CCCCC1,C9H15N5O4S,"InChI=1S/C9H15N5O4S/c10-7-6-8(13-4-2-1-3-5-13)12-9(11)14(7)18-19(15,16)17/h6H,1-5H2,(H4,10,11,12,15,16,17)",289.3115,-6.337531578145,-1.4313188536300006,4.906212724514999,11.74880640234492
000004204,OC(=O)CCCCCCCC#CC#CC#CC#CC(O)C,C18H20O3,"InChI=1S/C18H20O3/c1-17(19)15-13-11-9-7-5-3-2-4-6-8-10-12-14-16-18(20)21/h17,19H,4,6,8,10,12,14,16H2,1H3,(H,20,21)",284.3496,-6.0409274811,-1.7143172581500004,4.326610222949999,3.5876784122843284
000004205,CN1CCN2C(C1)c1ccccc1Cc1c2nccc1,C17H19N3,"InChI=1S/C17H19N3/c1-19-9-10-20-16(12-19)15-7-3-2-5-13(15)11-14-6-4-8-18-17(14)20/h2-8,16H,9-12H2,1H3",265.35286,-5.096692419865,-0.3510268671450003,4.745665552719999,1.691395993811325
000004206,CCCCC(CC=CC1C(O)CC(=O)C1CCCCCCC(=O)O)(O)C,C21H36O5,"InChI=1S/C21H36O5/c1-3-4-13-21(2,26)14-9-11-17-16(18(22)15-19(17)23)10-7-5-6-8-12-20(24)25/h9,11,16-17,19,23,26H,3-8,10,12-15H2,1-2H3,(H,24,25)",368.50754,-6.435492564325,-0.7047748727950003,5.73071769153,5.100612297382737
000004209,COC1=C(C)C(=O)C2=C(C1=O)C(COC(=O)N)C1(N2CC2C1N2)OC,C16H19N3O6,"InChI=1S/C16H19N3O6/c1-6-11(20)10-9(12(21)13(6)23-2)7(5-25-15(17)22)16(24-3)14-8(18-14)4-19(10)16/h7-8,14,18H,4-5H2,1-3H3,(H2,17,22)",349.33856,-5.542959134685,-2.549706779185,2.9932523554999997,1.0775347627482836
000004210,NC1Cn2c(C1)c(c1c2C(=O)C(=C(C1=O)N)C)COC(=O)N,C14H16N4O4,"InChI=1S/C14H16N4O4/c1-5-10(16)13(20)9-7(4-22-14(17)21)8-2-6(15)3-18(8)11(9)12(5)19/h6H,2-4,15-16H2,1H3,(H2,17,21)",304.30124,-5.483094087575,-2.3211311447650003,3.16196294281,2.8309979211700242
000004211,ClC(C(c1ccccc1Cl)c1ccc(cc1)Cl)Cl,C14H10Cl4,"InChI=1S/C14H10Cl4/c15-10-7-5-9(6-8-10)13(14(17)18)11-3-1-2-4-12(11)16/h1-8,13-14H",320.0412,-6.51440558097,-0.9469561997399998,5.56744938123,3.07352675819782
000004212,OCCNCCNc1ccc(c2c1C(=O)c1c(C2=O)c(O)ccc1O)NCCNCCO,C22H28N4O6,"InChI=1S/C22H28N4O6/c27-11-9-23-5-7-25-13-1-2-14(26-8-6-24-10-12-28)18-17(13)21(31)19-15(29)3-4-16(30)20(19)22(18)32/h1-4,23-30H,5-12H2",444.48092,-4.862674508435,-2.332015698785,2.5306588096500002,4.3595142553419866
000004213,OCC1OC(C(C1O)O)n1cnc(c1O)C(=O)N,C9H13N3O6,"InChI=1S/C9H13N3O6/c10-7(16)4-8(17)12(2-11-4)9-6(15)5(14)3(1-13)18-9/h2-3,5-6,9,13-15,17H,1H2,(H2,10,16)",259.21602,-5.74160224555,-0.23946018843999983,5.50214205711,3.6075218434085747
000004215,CCCCCCCCCCCCCCCCOCC(OP(=O)(OC)O)COCC(F)(F)F,C22H44F3O6P,"InChI=1S/C22H44F3O6P/c1-3-4-5-6-7-8-9-10-11-12-13-14-15-16-17-29-18-21(31-32(26,27)28-2)19-30-20-22(23,24)25/h21H,3-20H2,1-2H3,(H,26,27)",492.5501306,-7.0205373429,0.5061317619299999,7.52666910483,3.155590827122236
000004217,Clc1cccc2c1cccc2S(=O)(=O)N1CCNCCC1,C15H17ClN2O2S,"InChI=1S/C15H17ClN2O2S/c16-14-6-1-5-13-12(14)4-2-7-15(13)21(19,20)18-10-3-8-17-9-11-18/h1-2,4-7,17H,3,8-11H2",324.82568,-6.152494159805,-1.8857489839649997,4.266745175840001,4.299519687170998
000004219,ONC(=O)CC(C(=O)NC(C(=O)NC)CCc1ccccc1)CC(C)C,C19H29N3O4,"InChI=1S/C19H29N3O4/c1-13(2)11-15(12-17(23)22-26)18(24)21-16(19(25)20-3)10-9-14-7-5-4-6-8-14/h4-8,13,15-16,26H,9-12H2,1-3H3,(H,20,25)(H,21,24)(H,22,23)",363.45126,-6.342973855155,-0.3183732050849999,6.02460065007,4.02161469829719
000004220,CCCCCCCCC=CCCCCCCCC(=O)NO,C18H35NO2,"InChI=1S/C18H35NO2/c1-2-3-4-5-6-7-8-9-10-11-12-13-14-15-16-17-18(20)19-21/h9-10,21H,2-8,11-17H2,1H3,(H,19,20)",297.476,-6.2803876695400005,0.10068212468500004,6.3810697942250005,2.5653123709016414
000004222,OC(=O)C(NS(=O)(=O)c1ccc(cc1)c1ccccc1)Cc1ccccc1,C21H19NO4S,"InChI=1S/C21H19NO4S/c23-21(24)20(15-16-7-3-1-4-8-16)22-27(25,26)19-13-11-18(12-14-19)17-9-5-2-6-10-17/h1-14,20,22H,15H2,(H,23,24)",381.44486,-6.440934841335,-1.825883936855,4.61505090448,8.645017281865954
000004223,ONC(=O)C(NS(=O)(=O)c1ccc(cc1)c1ccccc1)Cc1ccccc1,C21H20N2O4S,"InChI=1S/C21H20N2O4S/c24-21(22-25)20(15-16-7-3-1-4-8-16)23-28(26,27)19-13-11-18(12-14-19)17-9-5-2-6-10-17/h1-14,20,23,25H,15H2,(H,22,24)",396.4595,-6.430050287315001,-1.3959440530650005,5.03410623425,5.689848023002723
000004224,CCCC(N(S(=O)(=O)c1ccc(cc1)OC)CC(=O)NO)C,C14H22N2O5S,"InChI=1S/C14H22N2O5S/c1-4-5-11(2)16(10-14(17)15-18)22(19,20)13-8-6-12(21-3)7-9-13/h6-9,11,18H,4-5,10H2,1-3H3,(H,15,17)",330.39988,-6.0572543121299995,-1.2109066347250002,4.846347677404999,7.413238255152737
000004226,ON=C(c1ccc2c(c1)c1ccccc1o2)CCC(=O)O,C16H13NO4,"InChI=1S/C16H13NO4/c18-16(19)8-6-13(17-20)10-5-7-15-12(9-10)11-3-1-2-4-14(11)21-15/h1-5,7,9,20H,6,8H2,(H,18,19)",283.27872,-6.043648619605,-1.0884554020000001,4.955193217605,3.49345444177851
000004227,ON=C(c1ccc(cc1)c1ccccc1)CCC(=O)O,C16H15NO3,"InChI=1S/C16H15NO3/c18-16(19)11-10-15(17-20)14-8-6-13(7-9-14)12-4-2-1-3-5-12/h1-9,20H,10-11H2,(H,18,19)",269.2952,-6.277666531035,-0.6476309641900002,5.630035566845,3.958386927094672
000004228,ONC(=O)C1Cc2ccccc2CC1S(=O)(=O)c1ccc(cc1)OC,C18H19NO5S,"InChI=1S/C18H19NO5S/c1-24-14-6-8-15(9-7-14)25(22,23)17-11-13-5-3-2-4-12(13)10-16(17)18(20)19-21/h2-9,16-17,21H,10-11H2,1H3,(H,19,20)",361.41216,-6.228686037945,-0.8816488756199998,5.347037162325,4.4427598482202475
000004229,ONC(=O)C1Cc2ccccc2CN1S(=O)(=O)c1ccc(cc1)OC,C17H18N2O5S,"InChI=1S/C17H18N2O5S/c1-24-14-6-8-15(9-7-14)25(22,23)19-11-13-5-3-2-4-12(13)10-16(19)17(20)18-21/h2-9,16,21H,10-11H2,1H3,(H,18,20)",362.40022,-6.11711935924,-1.1428781720999996,4.9742411871400005,5.205090091815318
000004230,ONC(=O)C1CN(CCN1S(=O)(=O)c1ccc(cc1)OC)C(=O)OCc1ccccc1,C20H23N3O7S,"InChI=1S/C20H23N3O7S/c1-29-16-7-9-17(10-8-16)31(27,28)23-12-11-22(13-18(23)19(24)21-26)20(25)30-14-15-5-3-2-4-6-15/h2-10,18,26H,11-14H2,1H3,(H,21,24)",449.47752,-6.16065757532,-1.2653294048249997,4.8953281704950005,6.6057212469965005
000004235,O=C(c1ccc(cc1)Cl)NCCN1CCOCC1,C13H17ClN2O2,"InChI=1S/C13H17ClN2O2/c14-12-3-1-11(2-4-12)13(17)15-5-6-16-7-9-18-10-8-16/h1-4H,5-10H2,(H,15,17)",268.73928,-5.902149417345,-0.8898122911349997,5.01233712621,2.5973611794174873
000004236,NC(=O)CS(=O)C(c1ccccc1)c1ccccc1,C15H15NO2S,"InChI=1S/C15H15NO2S/c16-14(17)11-19(18)15(12-7-3-1-4-8-12)13-9-5-2-6-10-13/h1-10,15H,11H2,(H2,16,17)",273.3501,-5.91031283286,-0.41633419126500026,5.493978641595,4.4620115747636735
000004237,COc1ccc(cc1)c1c(onc1c1ccc(cc1)OC)CC(=O)O,C19H17NO5,"InChI=1S/C19H17NO5/c1-23-14-7-3-12(4-8-14)18-16(11-17(21)22)25-20-19(18)13-5-9-15(24-2)10-6-13/h3-10H,11H2,1-2H3,(H,21,22)",339.34198,-5.8232364007,-1.0666862939600001,4.75655010674,7.192946434169658
000004246,O=C1OC2CCN3C2C(=CC3)COC(=O)C(C(C1C)(C)O)(C)O,C16H23NO6,"InChI=1S/C16H23NO6/c1-9-13(18)23-11-5-7-17-6-4-10(12(11)17)8-22-14(19)16(3,21)15(9,2)20/h4,9,11-12,20-21H,5-8H2,1-3H3",325.35692,-6.16609985233,-0.22857563442000028,5.93752421791,3.0487355655190895
000004247,NCCCCCNS(=O)(=O)c1cccc2c1cccc2N(C)C,C17H25N3O2S,"InChI=1S/C17H25N3O2S/c1-20(2)16-10-6-9-15-14(16)8-7-11-17(15)23(21,22)19-13-5-3-4-12-18/h6-11,19H,3-5,12-13,18H2,1-2H3",335.4643,-5.8259575392050005,-1.580981471405,4.244976067800001,4.2329707692260286
000004249,Cc1ccc(cc1)C1(O)CCN(CC1)CCCC(=O)c1ccc(cc1)F,C22H26FNO2,"InChI=1S/C22H26FNO2/c1-17-4-8-19(9-5-17)22(26)12-15-24(16-13-22)14-2-3-21(25)18-6-10-20(23)11-7-18/h4-11,26H,2-3,12-16H2,1H3",355.4457432,-5.755207938075,-1.2816562358550003,4.47355170222,2.3405278064720787
000004250,CN1CCCN=C1C=Cc1sccc1C,C12H16N2S,"InChI=1S/C12H16N2S/c1-10-6-9-15-11(10)4-5-12-13-7-3-8-14(12)2/h4-6,9H,3,7-8H2,1-2H3",220.33384,-5.52935344216,-1.0340326318999997,4.49532081026,1.4962247748463464
000004252,OCCn1nnnc1SCC1=C(C(=O)O)N2C(OC1)C(C2=O)(OC)NC(=O)CSC(F)F,C15H18F2N6O7S2,"InChI=1S/C15H18F2N6O7S2/c1-29-15(18-8(25)6-31-13(16)17)11(28)23-9(10(26)27)7(4-30-12(15)23)5-32-14-19-20-21-22(14)2-3-24/h12-13,24H,2-6H2,1H3,(H,18,25)(H,26,27)",496.4662264,-6.283108808045,-2.3755539148650002,3.90755489318,7.944263904816355
000004253,OC1C=CC2C34C1Oc1c4c(CC2N(CC3)C)ccc1O,C17H19NO3,"InChI=1S/C17H19NO3/c1-18-7-6-17-10-3-5-13(20)16(17)21-15-12(19)4-2-9(14(15)17)8-11(10)18/h2-5,10-11,13,16,19-20H,6-8H2,1H3",285.33766,-5.145672912955,-1.6245196874849999,3.52115322547,2.163222325300153
000004255,CCOC(=NC1=C[N+](=NC1)N1CCOCC1)[O-],C10H16N4O3,"InChI=1S/C10H16N4O3/c1-2-17-10(15)12-9-7-11-14(8-9)13-3-5-16-6-4-13/h8H,2-7H2,1H3",240.25904,-5.537516857675,-1.8857489839650001,3.6517678737099994,5.962826724759743
000004257,Clc1ccc2c(c1)N(CCCN1CCC3(CC1)C(=O)NC1N3CCCC1)c1ccccc1CC2,C28H35ClN4O,"InChI=1S/C28H35ClN4O/c29-23-12-11-22-10-9-21-6-1-2-7-24(21)32(25(22)20-23)16-5-15-31-18-13-28(14-19-31)27(34)30-26-8-3-4-17-33(26)28/h1-2,6-7,11-12,20,26H,3-5,8-10,13-19H2,(H,30,34)",479.0567,-5.1837688520250005,-0.13333578674499957,5.050433065280001,6.231480647179609
000004258,COC1(NC(=O)C(c2ccc(cc2)O)C(=O)O)C(=O)N2C1OCC(=C2C(=O)O)C,C18H18N2O9,"InChI=1S/C18H18N2O9/c1-8-7-29-17-18(28-2,16(27)20(17)12(8)15(25)26)19-13(22)11(14(23)24)9-3-5-10(21)6-4-9/h3-6,11,17,21H,7H2,1-2H3,(H,19,22)(H,23,24)(H,25,26)",406.34352,-6.468146226385,-1.24083915828,5.227307068105,9.650248941907872
000004259,COc1c(N2CC3C(C2)CCCN3)c(F)cc2c1n(cc(c2=O)C(=O)O)C1CC1,C21H24FN3O4,"InChI=1S/C21H24FN3O4/c1-29-20-17-13(19(26)14(21(27)28)9-25(17)12-4-5-12)7-15(22)18(20)24-8-11-3-2-6-23-16(11)10-24/h7,9,11-12,16,23H,2-6,8,10H2,1H3,(H,27,28)",401.4313632,-5.600103043290001,-1.3905017760550002,4.2096012672350005,12.485690959812718
000004260,CN(CCOc1cc(C)c(cc1C(C)C)OC(=O)C)C,C16H25NO3,"InChI=1S/C16H25NO3/c1-11(2)14-10-15(20-13(4)18)12(3)9-16(14)19-8-7-17(5)6/h9-11H,7-8H2,1-6H3",279.3746,-5.412344486445,-0.04898049309000019,5.363363993355,2.2348074641760527
000004261,O=C(OCc1cccnc1)NCc1ccc(cc1)C(=O)Nc1ccccc1N,C21H20N4O3,"InChI=1S/C21H20N4O3/c22-18-5-1-2-6-19(18)25-20(26)17-9-7-15(8-10-17)13-24-21(27)28-14-16-4-3-11-23-12-16/h1-12H,13-14,22H2,(H,24,27)(H,25,26)",376.4085,-5.483094087575,-0.7347073963500002,4.748386691225,2.3865412120445355
000004262,CCCCCCCCN1C(=O)C(=C(C1(C)O)C)C(=O)C,C16H27NO3,"InChI=1S/C16H27NO3/c1-5-6-7-8-9-10-11-17-15(19)14(13(3)18)12(2)16(17,4)20/h20H,5-11H2,1-4H3",281.39048,-6.533453550505,-1.8667010144300002,4.666752536075,3.1227215825369385
000004263,O=C1NC(C(=C1C(=O)C)C)(C)O,C8H11NO3,"InChI=1S/C8H11NO3/c1-4-6(5(2)10)7(11)9-8(4,3)12/h12H,1-3H3,(H,9,11)",169.17784,-6.68855844529,-1.9646620006099997,4.72389644468,2.8544152472177204
000004265,CC(CCC(C(C1CCC2(C1(C)CC(O)C1C2=CC(=O)C2(C1(C)CC(O)C(C2)O)O)O)(O)C)O)C,C27H44O8,"InChI=1S/C27H44O8/c1-14(2)6-7-20(31)25(5,33)19-8-9-26(34)15-10-21(32)27(35)13-17(29)16(28)11-24(27,4)22(15)18(30)12-23(19,26)3/h10,14,16-20,22,28-31,33-35H,6-9,11-13H2,1-5H3",496.63346,-6.108955943725,-1.2680505433300002,4.840905400395,5.301102215215719
000004266,NCc1cc(=O)[nH]o1,C4H6N2O2,"InChI=1S/C4H6N2O2/c5-2-3-1-4(7)6-8-3/h1H,2,5H2,(H,6,7)",114.10264,-6.484473057415,-0.8598797675799998,5.624593289835,4.657425638706216
000004271,COc1c(CC=C(CCC(=O)OCCN2CCOCC2)C)c(O)c2c(c1C)COC2=O,C23H31NO7,"InChI=1S/C23H31NO7/c1-15(5-7-19(25)30-13-10-24-8-11-29-12-9-24)4-6-17-21(26)20-18(14-31-23(20)27)16(2)22(17)28-3/h4,26H,5-14H2,1-3H3",433.49474,-5.679016059935,-0.90886026067,4.770155799265,6.72991533292277
000004272,COc1c(CC=C(CCC(=O)O)C)c(O)c2c(c1C)COC2=O,C17H20O6,"InChI=1S/C17H20O6/c1-9(5-7-13(18)19)4-6-11-15(20)14-12(8-23-17(14)21)10(2)16(11)22-3/h4,20H,5-8H2,1-3H3,(H,18,19)",320.3371,-6.032764065585001,-0.9387927842249999,5.093971281360001,9.501160135637594
000004273,COc1ccc(cc1)CNc1nc(NCc2ccc(cc2)OC)c2c(n1)n(cn2)C(C)C,C24H28N6O2,"InChI=1S/C24H28N6O2/c1-16(2)30-15-27-21-22(25-13-17-5-9-19(31-3)10-6-17)28-24(29-23(21)30)26-14-18-7-11-20(32-4)12-8-18/h5-12,15-16H,13-14H2,1-4H3,(H2,25,26,28,29)",432.51812,-4.97424118714,-0.3183732050849999,4.655867982055,1.3443297241082635
000004274,CCOCCP(CCOCC)CCP(CCOCC)CCOCC,C18H40O4P2,"InChI=1S/C18H40O4P2/c1-5-19-9-13-23(14-10-20-6-2)17-18-24(15-11-21-7-3)16-12-22-8-4/h5-18H2,1-4H3",382.455322,-5.997389265020001,0.8979757066499996,6.89536497167,1.2744602555819462
000004276,C=CCc1cc(OC)c2c(c1)OCO2,C11H12O3,"InChI=1S/C11H12O3/c1-3-4-8-5-9(12-2)11-10(6-8)13-7-14-11/h3,5-6H,1,4,7H2,2H3",192.21118,-5.4286713174750005,0.2557870194699996,5.684458336945,1.7780052037935659
000004277,O=C(NC1CCCCC1)NC1CCCCC1,C13H24N2O,"InChI=1S/C13H24N2O/c16-13(14-11-7-3-1-4-8-11)15-12-9-5-2-6-10-12/h11-12H,1-10H2,(H2,14,15,16)",224.34246,-6.3320893011349995,1.5129530087800003,7.845042309915,3.106132527259582
000004278,CN(C(=O)N=NC(=O)N(C)C)C,C6H12N4O2,InChI=1S/C6H12N4O2/c1-9(2)5(11)7-8-6(12)10(3)4/h1-4H3,172.18508,-6.06813886615,-1.8721432914399996,4.19599557471,9.99599919967984e-05
000004280,OCCN(S(=O)(=O)c1cccc(c1)C(=O)O)CCO,C11H15NO6S,"InChI=1S/C11H15NO6S/c13-6-4-12(5-7-14)19(17,18)10-3-1-2-9(8-10)11(15)16/h1-3,8,13-14H,4-7H2,(H,15,16)",289.3049,-7.129382883100001,-1.9156815075200004,5.21370137558,4.925877203174781
000004281,CCN(C(=O)C(C(C)C)NS(=O)(=O)c1ccc(cc1)C)CC,C16H26N2O3S,"InChI=1S/C16H26N2O3S/c1-6-18(7-2)16(19)15(12(3)4)17-22(20,21)14-10-8-13(5)9-11-14/h8-12,15,17H,6-7H2,1-5H3",326.45424,-6.19875351439,-1.1374358950899994,5.0613176193000005,4.70790792232654
000004282,CCNCCCNCCCNCCCNCC,C13H32N4,"InChI=1S/C13H32N4/c1-3-14-8-5-10-16-12-7-13-17-11-6-9-15-4-2/h14-17H,3-13H2,1-2H3",244.41998,-5.7606502150850005,2.2966408982199997,8.057291113305,3.625256330762971
000004283,CCNCCCNCCCCNCCCNCC,C14H34N4,"InChI=1S/C14H34N4/c1-3-15-11-7-13-17-9-5-6-10-18-14-8-12-16-4-2/h15-18H,3-14H2,1-2H3",258.44656,-5.79602501565,2.332015698784999,8.128040714434999,4.696807426326951e-05
000004284,CCN(C(=O)c1cccc(c1)C)CC,C12H17NO,"InChI=1S/C12H17NO/c1-4-13(5-2)12(14)11-8-6-7-10(3)9-11/h6-9H,4-5H2,1-3H3",191.26948,-6.23140717645,-0.22857563442000028,6.00283154203,3.4499813683041824
000004285,CCCCCCCCCCCCCC=CC(C(N(C)C)CO)O,C20H41NO2,"InChI=1S/C20H41NO2/c1-4-5-6-7-8-9-10-11-12-13-14-15-16-17-20(23)19(18-22)21(2)3/h16-17,19-20,22-23H,4-15,18H2,1-3H3",327.54504,-5.542959134685,0.42449760678000015,5.967456741465,2.4333139593340603
000004286,O=C(NC12CC3CC(C2)CC(C1)C3)NCc1ccc(cc1)N=C(N)N,C19H27N5O,"InChI=1S/C19H27N5O/c20-17(21)23-16-3-1-12(2-4-16)11-22-18(25)24-19-8-13-5-14(9-19)7-15(6-13)10-19/h1-4,13-15H,5-11H2,(H4,20,21,23)(H2,22,24,25)",341.45058,-5.2790086997,0.046259354584999635,5.325268054285,1.8866589863366934
000004287,O=C(C1CCC(CC1)S(=O)(=O)N)NCc1c(F)c(F)c(c(c1F)F)F,C14H15F5N2O3S,"InChI=1S/C14H15F5N2O3S/c15-9-8(10(16)12(18)13(19)11(9)17)5-21-14(22)6-1-3-7(4-2-6)25(20,23)24/h6-7H,1-5H2,(H,21,22)(H2,20,23,24)",386.337516,-6.949787741770001,-1.183695249675,5.766092492095001,5.657673688351247
000004288,O=C(c1ccc(cc1)S(=O)(=O)N)NCc1c(F)cccc1F,C14H12F2N2O3S,"InChI=1S/C14H12F2N2O3S/c15-12-2-1-3-13(16)11(12)8-18-14(19)9-4-6-10(7-5-9)22(17,20)21/h1-7H,8H2,(H,18,19)(H2,17,20,21)",326.3184864,-6.870874725125,-1.428597715125,5.44227701,2.4853444783600924
000004289,NCCNC(=O)c1ccc(cc1)Cl,C9H11ClN2O,"InChI=1S/C9H11ClN2O/c10-8-3-1-7(2-4-8)9(13)12-6-5-11/h1-4H,5-6,11H2,(H,12,13)",198.64944,-6.4246080103050005,-0.8598797675799998,5.564728242725001,2.7292575245956545
000004290,O=C(c1ccc(cc1)S(=O)(=O)N)NCc1ccccc1F,C14H13FN2O3S,"InChI=1S/C14H13FN2O3S/c15-13-4-2-1-3-11(13)9-17-14(18)10-5-7-12(8-6-10)21(16,19)20/h1-8H,9H2,(H,17,18)(H2,16,19,20)",308.3280232,-6.702164137815,-1.4748570697099996,5.2273070681050005,1.0262740132328207
000004291,OCCN(S(=O)(=O)c1ccc(cc1)C)CC(O)C,C12H19NO4S,"InChI=1S/C12H19NO4S/c1-10-3-5-12(6-4-10)18(16,17)13(7-8-14)9-11(2)15/h3-6,11,14-15H,7-9H2,1-2H3",273.34856,-6.506242165455,-1.2027432192100003,5.303498946245,4.728933022262527
000004292,COc1ccc2c(c1)c(CC(=O)NCCc1ccccc1)c(n2C(=O)c1ccc(cc1)Cl)C,C27H25ClN2O3,"InChI=1S/C27H25ClN2O3/c1-18-23(17-26(31)29-15-14-19-6-4-3-5-7-19)24-16-22(33-2)12-13-25(24)30(18)27(32)20-8-10-21(28)11-9-20/h3-13,16H,14-15,17H2,1-2H3,(H,29,31)",460.952,-5.66541036741,-1.3660115295099997,4.2993988379,5.228757322626572
000004293,O=S(=O)(c1ccc(s1)S(=O)(=O)N)NCc1cccs1,C9H10N2O4S4,"InChI=1S/C9H10N2O4S4/c10-18(12,13)8-3-4-9(17-8)19(14,15)11-6-7-2-1-5-16-7/h1-5,11H,6H2,(H2,10,12,13)",338.4467,-6.489915334425,-2.14969941895,4.3402159154749995,1.3626089066515015
000004294,OC(=O)c1ccccc1NS(=O)(=O)c1ccc(c(c1)N)O,C13H12N2O5S,"InChI=1S/C13H12N2O5S/c14-10-7-8(5-6-12(10)16)21(19,20)15-11-4-2-1-3-9(11)13(17)18/h1-7,15-16H,14H2,(H,17,18)",308.30978,-5.94840877193,-1.4149920226,4.53341674933,1.705226312715412
000004295,COc1ccc2c(c1)c(CC(=O)NCCc1cccnc1)c(n2C(=O)c1ccc(cc1)Cl)C,C26H24ClN3O3,"InChI=1S/C26H24ClN3O3/c1-17-22(15-25(31)29-13-11-18-4-3-12-28-16-18)23-14-21(33-2)9-10-24(23)30(17)26(32)19-5-7-20(27)8-6-19/h3-10,12,14,16H,11,13,15H2,1-2H3,(H,29,31)",461.94006,-5.7143908605,-1.4177131611050005,4.2966776993949996,4.274336435026728
000004296,FC(c1cccc(c1)N1CCNCC1)(F)F,C11H13F3N2,"InChI=1S/C11H13F3N2/c12-11(13,14)9-2-1-3-10(8-9)16-6-4-15-5-7-16/h1-3,8,15H,4-7H2",230.2295296,-5.515747749635,-0.6340252716650001,4.8817224779699995,3.8370785249589305
000004298,NCCCCNS(=O)(=O)c1ccc2c(c1)cccc2,C14H18N2O2S,"InChI=1S/C14H18N2O2S/c15-9-3-4-10-16-19(17,18)14-8-7-12-5-1-2-6-13(12)11-14/h1-2,5-8,11,16H,3-4,9-10,15H2",278.36992,-6.261339700005,-1.5755391943949997,4.6858005056100005,4.941219010398649
000004299,NCCCCNS(=O)(=O)c1ccc2c(c1)cccc2Cl,C14H17ClN2O2S,"InChI=1S/C14H17ClN2O2S/c15-14-5-3-4-11-10-12(6-7-13(11)14)20(18,19)17-9-2-1-8-16/h3-7,10,17H,1-2,8-9,16H2",312.81498,-6.315762470105001,-1.8095571058250002,4.50620536428,4.541189988313305
000004301,O=C(c1ccccc1O)Nc1ccc(cc1)C(=N)N,C14H13N3O2,"InChI=1S/C14H13N3O2/c15-13(16)9-5-7-10(8-6-9)17-14(19)11-3-1-2-4-12(11)18/h1-8,18H,(H3,15,16)(H,17,19)",255.27192,-5.69262175246,-1.2870985128649997,4.405523239595,6.848415790546162
000004302,O=C1C=CC(=O)N1c1ccc(c(c1)O)C(=O)O,C11H7NO5,"InChI=1S/C11H7NO5/c13-8-5-6(1-2-7(8)11(16)17)12-9(14)3-4-10(12)15/h1-5,13H,(H,16,17)",233.17698,-6.285829946550001,-3.1565206658,3.1293092807500007,6.2959388633353965