mol_id,SMILES,formula,inchi,mass,HOMO(eV),LUMO(eV),GAP(eV),dipole_moment
000001041,OC1C(OC(C1O)COP(=O)(O)O)OP(=O)(OP(=O)(O)O)O,C5H13O14P3,"InChI=1S/C5H13O14P3/c6-3-2(1-16-20(8,9)10)17-5(4(3)7)18-22(14,15)19-21(11,12)13/h2-7H,1H2,(H,14,15)(H2,8,9,10)(H2,11,12,13)",390.069603,-7.747081323735,-0.4843626538899999,7.262718669845,6.7667716154264435
000001042,OC1C(O)C(OC1c1c[nH]c(=O)[nH]c1=O)COP(=O)(O)O,C9H13N2O9P,"InChI=1S/C9H13N2O9P/c12-5-4(2-19-21(16,17)18)20-7(6(5)13)3-1-10-9(15)11-8(3)14/h1,4-7,12-13H,2H2,(H2,16,17,18)(H2,10,11,14,15)",324.181281,-6.73753893838,-1.3469635599750003,5.390575378405,3.6716475363136367
000001043,c1ncc2c(n1)nccn2,C6H4N4,InChI=1S/C6H4N4/c1-2-9-6-5(8-1)3-7-4-10-6/h1-4H,132.12276,-6.81917309353,-2.74834989005,4.07082320348,2.4748768968669936
000001044,c1ncc2c(n1)nc[nH]2,C5H4N4,"InChI=1S/C5H4N4/c1-4-5(8-2-6-1)9-3-7-4/h1-3H,(H,6,7,8,9)",120.11206,-6.75930804642,-1.5347221168200003,5.2245859296,5.612489798072421
000001045,NCCCCN,C4H12N2,InChI=1S/C4H12N2/c5-3-1-2-4-6/h1-6H2,88.15148,-6.12256163625,2.34562139131,8.46818302756,2.246238916447002
000001046,NC(=O)c1cnccn1,C5H5N3O,"InChI=1S/C5H5N3O/c6-5(9)4-3-7-1-2-8-4/h1-3H,(H2,6,9)",123.1127,-6.838221063065001,-2.0082002166899997,4.830020846375001,3.6412913491926187
000001047,OC(=O)c1cnccn1,C5H4N2O2,"InChI=1S/C5H4N2O2/c8-5(9)4-3-6-1-2-7-4/h1-3H,(H,8,9)",124.09746,-7.366121933035,-2.4408612389850006,4.925260694049999,4.742797051989574
000001048,c1ccn[nH]1,C3H4N2,"InChI=1S/C3H4N2/c1-2-4-5-3-1/h1-3H,(H,4,5)",68.07726,-6.53617468901,0.4353821607999997,6.97155684981,2.2323369573738194
000001049,c1cccnc1,C5H5N,InChI=1S/C5H5N/c1-2-4-6-5-3-1/h1-5H,79.0999,-6.840942201570001,-0.6666789337249996,6.174263267845001,2.1943230199918156
000001050,O=Cc1c(CO)cnc(c1O)C,C8H9NO3,"InChI=1S/C8H9NO3/c1-5-8(12)7(4-11)6(3-10)2-9-5/h2,4,10,12H,3H2,1H3",167.16196,-6.337531578145,-2.1687473884849995,4.16878418966,1.824426435744396
000001051,O=Cc1c(COP(=O)(O)O)cnc(c1O)C,C8H10NO6P,"InChI=1S/C8H10NO6P/c1-5-8(11)7(3-10)6(2-9-5)4-15-16(12,13)14/h2-3,11H,4H2,1H3,(H2,12,13,14)",247.141861,-6.35657954768,-2.21500674307,4.14157280461,1.7730981275919275
000001052,NCc1c(CO)cnc(c1O)C,C8H12N2O2,"InChI=1S/C8H12N2O2/c1-5-8(12)7(2-9)6(4-11)3-10-5/h3,11-12H,2,4,9H2,1H3",168.19308,-5.749765661065,-0.5251797314650002,5.2245859296,3.713669367353669
000001053,NCc1c(COP(=O)(O)O)cnc(c1O)C,C8H13N2O5P,"InChI=1S/C8H13N2O5P/c1-5-8(11)7(2-9)6(3-10-5)4-15-16(12,13)14/h3,11H,2,4,9H2,1H3,(H2,12,13,14)",248.172981,-6.059975450635,-0.851716352065,5.20825909857,4.587075453293743
000001054,OCc1c(CO)cnc(c1O)C,C8H11NO3,"InChI=1S/C8H11NO3/c1-5-8(12)7(4-11)6(3-10)2-9-5/h2,10-12H,3-4H2,1H3",169.17784,-5.921197386879999,-0.68572690326,5.2354704836199994,2.4210286986859533
000001055,OCc1c(cnc(c1O)C)COP(=O)(O)O,C8H12NO6P,"InChI=1S/C8H12NO6P/c1-5-8(11)7(3-10)6(2-9-5)4-15-16(12,13)14/h2,10-11H,3-4H2,1H3,(H2,12,13,14)",249.157741,-6.019158373060001,-0.7782456124300001,5.2409127606300006,0.8825791775818189
000001057,Oc1c(O)cccc1O,C6H6O3,"InChI=1S/C6H6O3/c7-4-2-1-3-5(8)6(4)9/h1-3,7-9H",126.11004,-5.526632303655,0.5306220084750004,6.05725431213,2.8665300328002843
000001059,OC1C=NC(C1)C(=O)O,C5H7NO3,"InChI=1S/C5H7NO3/c7-3-1-4(5(8)9)6-2-3/h2-4,7H,1H2,(H,8,9)",129.11398,-7.268160946855001,-1.1075033715350004,6.16065757532,3.7616880580373753
000001060,OC(=O)C(=O)C,C3H4O3,"InChI=1S/C3H4O3/c1-2(4)3(5)6/h1H3,(H,5,6)",88.06206,-7.3334682709750005,-2.3837173303799997,4.949750940595001,2.479199787168836
000001062,COc1c(O)c(CC=C(CCC=C(C)C)C)c(c(c1OC)O)C,C19H28O4,"InChI=1S/C19H28O4/c1-12(2)8-7-9-13(3)10-11-15-14(4)16(20)18(22-5)19(23-6)17(15)21/h8,10,20-21H,7,9,11H2,1-6H3",320.42322,-4.87628020096,0.19047969534999964,5.06675989631,2.468072980233364
000001064,OC1C(O)CC(CC1O)(O)C(=O)O,C7H12O6,"InChI=1S/C7H12O6/c8-3-1-7(13,6(11)12)2-4(9)5(3)10/h3-5,8-10,13H,1-2H2,(H,11,12)",192.16658,-6.95523001878,-0.05714390860500007,6.898086110175,3.612917132165226
000001065,C=CC1CN2CCC1CC2C(c1ccnc2c1cc(OC)cc2)O,C20H24N2O2,"InChI=1S/C20H24N2O2/c1-3-13-12-22-9-7-14(13)10-19(22)20(23)16-6-8-21-18-5-4-15(24-2)11-17(16)18/h3-6,8,11,13-14,19-20,23H,1,7,9-10,12H2,2H3",324.41676,-5.62187215133,-1.183695249675,4.438176901655,3.1706336757828075
000001066,OC(=O)c1ncccc1C(=O)O,C7H5NO4,"InChI=1S/C7H5NO4/c9-6(10)4-2-1-3-8-5(4)7(11)12/h1-3H,(H,9,10)(H,11,12)",167.1189,-7.47768861174,-2.3837173303799997,5.09397128136,6.463503124534326
000001068,CSC,C2H6S,InChI=1S/C2H6S/c1-3-2/h1-2H3,62.13404,-5.874938032295001,1.4231554381149998,7.2980934704100004,1.714167737869897
000001070,O=CC=C(C=CC=C(C=CC1=C(C)CCCC1(C)C)C)C,C20H28O,"InChI=1S/C20H28O/c1-16(8-6-9-17(2)13-15-21)11-12-19-18(3)10-7-14-20(19,4)5/h6,8-9,11-13,15H,7,10,14H2,1-5H3",284.43572,-5.861332339770001,-1.48574162373,4.3755907160400005,3.370200463871549
000001071,OCC=C(C=CC=C(C=CC1=C(C)CCCC1(C)C)C)C,C20H30O,"InChI=1S/C20H30O/c1-16(8-6-9-17(2)13-15-21)11-12-19-18(3)10-7-14-20(19,4)5/h6,8-9,11-13,21H,7,10,14-15H2,1-5H3",286.4516,-5.4966997801,-0.6721212107349999,4.824578569365,2.0630574439787175
000001072,OCC(C(C(Cn1c2cc(C)c(cc2nc2c1nc(=O)[nH]c2=O)C)O)O)O,C17H20N4O6,"InChI=1S/C17H20N4O6/c1-7-3-9-10(4-8(7)2)21(5-11(23)14(25)12(24)6-22)15-13(18-9)16(26)20-17(27)19-15/h3-4,11-12,14,22-25H,5-6H2,1-2H3,(H,20,26,27)",376.3639,-6.147051882795,-2.78100355211,3.366048330685,8.954615664731456
000001073,OC1C(COP(=O)(O)O)OC(C1O)OP(=O)(O)O,C5H12O11P2,"InChI=1S/C5H12O11P2/c6-3-2(1-14-17(8,9)10)15-5(4(3)7)16-18(11,12)13/h2-7H,1H2,(H2,8,9,10)(H2,11,12,13)",310.089702,-7.153873129645,0.3591902826600002,7.513063412305001,4.493679585868134
000001074,OCC1OC(C(C1O)O)OP(=O)(O)O,C5H11O8P,"InChI=1S/C5H11O8P/c6-1-2-3(7)4(8)5(12-2)13-14(9,10)11/h2-8H,1H2,(H2,9,10,11)",230.109801,-7.2545552543300005,0.2612292964799998,7.51578455081,2.497494104252901
000001076,SCCC(SC(=O)C)CCCCC(=O)N,C10H19NO2S2,"InChI=1S/C10H19NO2S2/c1-8(12)15-9(6-7-14)4-2-3-5-10(11)13/h9,14H,2-7H2,1H3,(H2,11,13)",249.39336,-6.283108808045,-0.5469488395050002,5.73615996854,2.754000628931301
000001080,OC(=O)CSCC(C(=O)O)N,C5H9NO4S,"InChI=1S/C5H9NO4S/c6-3(5(9)10)1-11-2-4(7)8/h3H,1-2,6H2,(H,7,8)(H,9,10)",179.19426,-6.47086736489,-0.9932155543250003,5.477651810565,6.028964066545844
000001081,OC(=O)CC(C(=O)O)(O)C,C5H8O5,"InChI=1S/C5H8O5/c1-5(10,4(8)9)2-3(6)7/h10H,2H2,1H3,(H,6,7)(H,8,9)",148.11402,-7.417823564630001,-0.5796025015649997,6.838221063065001,2.016932643018353
000001082,OCSCC(C(=O)NCC(=O)O)NC(=O)CCC(C(=O)O)N,C11H19N3O7S,"InChI=1S/C11H19N3O7S/c12-6(11(20)21)1-2-8(16)14-7(4-22-5-15)10(19)13-3-9(17)18/h6-7,15H,1-5,12H2,(H,13,19)(H,14,16)(H,17,18)(H,20,21)",337.34946,-6.397396625255,-0.9768887232949997,5.420507901960001,4.598603285106576
000001083,O=C(NC(C(=O)NCC(=O)O)CSC(=O)C(O)C)CCC(C(=O)O)N,C13H21N3O8S,"InChI=1S/C13H21N3O8S/c1-6(17)13(24)25-5-8(11(21)15-4-10(19)20)16-9(18)3-2-7(14)12(22)23/h6-8,17H,2-5,14H2,1H3,(H,15,21)(H,16,18)(H,19,20)(H,22,23)",379.38614,-6.6912795837950005,-1.140157033595,5.551122550200001,4.515074795606048
000001085,OS(=O)(=O)S,H2O3S2,"InChI=1S/H2O3S2/c1-5(2,3)4/h(H2,1,2,3,4)",114.14408,-7.970214681145,-1.5483278093450004,6.4218868718,2.039444168110517
000001087,OC(=O)CCC(C(=O)O)NCCCCC(C(=O)O)N,C11H20N2O6,"InChI=1S/C11H20N2O6/c12-7(10(16)17)3-1-2-6-13-8(11(18)19)4-5-9(14)15/h7-8,13H,1-6,12H2,(H,14,15)(H,16,17)(H,18,19)",276.2863,-6.9307397722349995,-0.5306220084750004,6.400117763759999,4.320845779676358
000001088,CNCC(=O)O,C3H7NO2,"InChI=1S/C3H7NO2/c1-4-2-3(5)6/h4H,2H2,1H3,(H,5,6)",89.09318,-6.843663340075,0.32109434358999955,7.164757683665,5.288750232472129
000001093,OCC(C(=O)OP(=O)(OCC1OC(C(C1O)O)n1cnc2c1ncnc2N)O)N,C13H19N6O9P,"InChI=1S/C13H19N6O9P/c14-5(1-20)13(23)28-29(24,25)26-2-6-8(21)9(22)12(27-6)19-4-18-7-10(15)16-3-17-11(7)19/h3-6,8-9,12,20-22H,1-2,14H2,(H,24,25)(H2,15,16,17)",434.298521,-6.024600650070001,-0.9850521388100004,5.0395485112600005,3.5525226164607315
000001094,OC1CC(=CC(C1O)O)C(=O)O,C7H10O5,"InChI=1S/C7H10O5/c8-4-1-3(7(11)12)2-5(9)6(4)10/h1,4-6,8-10H,2H2,(H,11,12)",174.1513,-7.40693901061,-1.2217911887450006,6.185147821865,2.548981358512259
000001095,OC1C(O)CC(=CC1OP(=O)(O)O)C(=O)O,C7H11O8P,"InChI=1S/C7H11O8P/c8-4-1-3(7(10)11)2-5(6(4)9)15-16(12,13)14/h2,4-6,8-9H,1H2,(H,10,11)(H2,12,13,14)",254.131201,-7.7307544927050005,-1.4258765766200003,6.304877916085,4.818103312130822
000001100,OS(=O)O,H2O3S,"InChI=1S/H2O3S/c1-4(2)3/h(H2,1,2,3)",82.07908,-7.877695971974999,-0.7292651193399999,7.148430852634999,1.8641009963478372
000001101,OCC(C(C(C(=O)CO)O)O)O,C6H12O6,"InChI=1S/C6H12O6/c7-1-3(9)5(11)6(12)4(10)2-8/h3,5-9,11-12H,1-2H2",180.15588,-6.718490968845001,-1.2027432192100003,5.5157477496350005,0.7368796730437067
000001102,NCCCNCCCCN,C7H19N3,"InChI=1S/C7H19N3/c8-4-1-2-6-10-7-3-5-9/h10H,1-9H2",145.24586,-5.8776591708,2.337457975795,8.215117146595,1.5429481620585963
000001103,NCCCNCCCCNCCCN,C10H26N4,"InChI=1S/C10H26N4/c11-5-3-9-13-7-1-2-8-14-10-4-6-12/h13-14H,1-12H2",202.34024,-5.8776591708,2.34562139131,8.22328056211,0.8538613527271275
000001104,CCCCCCCCCCCCCC=CC(C(CO)N)O,C18H37NO2,"InChI=1S/C18H37NO2/c1-2-3-4-5-6-7-8-9-10-11-12-13-14-15-18(21)17(19)16-20/h14-15,17-18,20-21H,2-13,16,19H2,1H3",299.49188,-6.29127222356,0.3510268671450003,6.642299090705,3.3646800777849593
000001105,CC(=CCCC=C(CCC=C(CCC=C(C)C)C)C)CCC=C(CCC=C(C)C)C,C30H50,"InChI=1S/C30H50/c1-25(2)15-11-19-29(7)23-13-21-27(5)17-9-10-18-28(6)22-14-24-30(8)20-12-16-26(3)4/h15-18,23-24H,9-14,19-22H2,1-8H3",410.718,-5.81779412369,0.6013716096049997,6.419165733294999,0.3977011124299252
000001107,OC1CCC2C(C1)CCC1C2CCC2C1CCC2,C17H28O,"InChI=1S/C17H28O/c18-13-6-9-15-12(10-13)5-8-16-14-3-1-2-11(14)4-7-17(15)16/h11-18H,1-10H2",248.40362,-6.813730816520001,1.6000294409399993,8.41376025746,1.9967026650563173
000001108,C1CCC2C(C1)CCC1C2CCC2C1CCC2,C17H28,"InChI=1S/C17H28/c1-2-6-14-12(4-1)8-10-17-15-7-3-5-13(15)9-11-16(14)17/h12-17H,1-11H2",232.40422,-7.04774872795,2.027248186224999,9.074996914175,0.06610092548520027
000001110,OC(=O)CCC(=O)O,C4H6O4,"InChI=1S/C4H6O4/c5-3(6)1-2-4(7)8/h1-2H2,(H,5,6)(H,7,8)",118.08804,-7.708985384665,-0.25850815797500015,7.4504772266899995,0.0009342446146486475
000001112,O=CCCC(=O)O,C4H6O3,"InChI=1S/C4H6O3/c5-3-1-2-4(6)7/h3H,1-2H2,(H,6,7)",102.08864,-7.314420301439999,-0.9496773382450003,6.364742963194999,2.1196376952050087
000001114,OC(=O)CCC(=O)C1=C(C(=O)O)C(CC=C1)O,C11H12O6,"InChI=1S/C11H12O6/c12-7(4-5-9(14)15)6-2-1-3-8(13)10(6)11(16)17/h1-2,8,13H,3-5H2,(H,14,15)(H,16,17)",240.20938,-6.811009678015001,-2.2122856045650003,4.598724073450001,3.2006307310255266
000001115,OCC1OC(C(C1O)O)(CO)OC1OC(CO)C(C(C1O)O)O,C12H22O11,"InChI=1S/C12H22O11/c13-1-4-6(16)8(18)9(19)11(21-4)23-12(3-15)10(20)7(17)5(2-14)22-12/h4-11,13-20H,1-3H2",342.29648,-6.9116918027,0.88709115263,7.79878295533,4.090150294105218
000001116,OCC1OC(OC2(CO)OC(C(C2O)O)COP(=O)(O)O)C(C(C1O)O)O,C12H23O14P,"InChI=1S/C12H23O14P/c13-1-4-6(15)8(17)9(18)11(24-4)26-12(3-14)10(19)7(16)5(25-12)2-23-27(20,21)22/h4-11,13-19H,1-3H2,(H2,20,21,22)",422.276381,-6.642299090705,-0.10068212468500004,6.54161696602,3.429314494720337
000001118,OS(=O)(=O)O,H2O4S,"InChI=1S/H2O4S/c1-5(2,3)4/h(H2,1,2,3,4)",98.07848,-9.129419684275002,-0.12789350973499936,9.001526174540002,2.474756270983872
000001119,O=S=O,O2S,InChI=1S/O2S/c1-3-2,64.0638,-8.23960739314,-2.9306661698850007,5.308941223254999,0.5357325030535295
000001122,O=CC(C(=O)O)O,C3H4O4,"InChI=1S/C3H4O4/c4-1-2(5)3(6)7/h1-2,5H,(H,6,7)",104.06146,-7.526669104830001,-1.804114828815,5.722554276015001,2.713348229084133
000001123,NCCS(=O)(=O)O,C2H7NO3S,"InChI=1S/C2H7NO3S/c3-1-2-7(4,5)6/h1-3H2,(H,4,5,6)",125.14688,-6.906249525690001,0.454430130335,7.360679656025001,3.7536751383678637
000001124,OC1CC(OC1COP(=O)(OP(=O)(O)O)O)n1cc(C)c(=O)[nH]c1=O,C10H16N2O11P2,"InChI=1S/C10H16N2O11P2/c1-5-3-12(10(15)11-9(5)14)8-2-6(13)7(22-8)4-21-25(19,20)23-24(16,17)18/h3,6-8,13H,2,4H2,1H3,(H,19,20)(H,11,14,15)(H2,16,17,18)",402.188362,-6.61780884416,-1.4694147927000003,5.1483940514599995,2.223887355201248
000001125,CC(C(C1CNc2c(N1)c(=O)nc([nH]2)N)O)O,C9H15N5O3,"InChI=1S/C9H15N5O3/c1-3(15)6(16)4-2-11-7-5(12-4)8(17)14-9(10)13-7/h3-4,6,12,15-16H,2H2,1H3,(H4,10,11,13,14,17)",241.2471,-5.314383500265,-0.1578260332900001,5.156557466975,6.836293762042559
000001127,C1CCCS1,C4H8S,InChI=1S/C4H8S/c1-2-4-5-3-1/h1-4H2,88.17132,-5.7035063064800005,1.3143098979149999,7.017816204395,2.188919230293571
000001128,O=S1CCCC1,C4H8OS,InChI=1S/C4H8OS/c5-6-3-1-2-4-6/h1-4H2,104.17072,-5.7035063064800005,0.851716352065,6.555222658545,4.226520550629205
000001129,OC(=O)CCC(C(=O)O)NC(=O)c1ccc(cc1)NCC1CNc2c(N1)c(=O)nc([nH]2)N,C19H23N7O6,"InChI=1S/C19H23N7O6/c20-19-25-15-14(17(30)26-19)23-11(8-22-15)7-21-10-3-1-9(2-4-10)16(29)24-12(18(31)32)5-6-13(27)28/h1-4,11-12,21,23H,5-8H2,(H,24,29)(H,27,28)(H,31,32)(H4,20,22,25,26,30)",445.42922,-5.28989325372,-0.62041957914,4.66947367458,11.442118339633664
000001133,OC(=O)CS,C2H4O2S,"InChI=1S/C2H4O2S/c3-2(4)1-5/h5H,1H2,(H,3,4)",92.11696,-7.148430852635,-0.3428634516300004,6.805567401005,3.0319808774545396
000001134,OCC1OC(CC1O)n1cc(C)c(=O)[nH]c1=O,C10H14N2O5,"InChI=1S/C10H14N2O5/c1-5-3-12(10(16)11-9(5)15)8-2-6(14)7(4-13)17-8/h3,6-8,13-14H,2,4H2,1H3,(H,11,15,16)",242.22856,-6.326647024125,-1.10478223303,5.221864791095,2.98502450814562
000001135,Cc1c[nH]c(=O)[nH]c1=O,C5H6N2O2,"InChI=1S/C5H6N2O2/c1-3-2-6-5(9)7-4(3)8/h2H,1H3,(H2,6,7,8,9)",126.11334,-6.495357611435,-1.205464357715,5.28989325372,4.094868719198944
000001136,Cc1ncsc1CCO,C6H9NOS,"InChI=1S/C6H9NOS/c1-5-6(2-3-8)9-4-7-5/h4,8H,2-3H2,1H3",143.20676,-6.440934841335,-0.7292651193399999,5.711669721995,1.3046579767605762
000001137,Cc1ncsc1CCOP(=O)(O)O,C6H10NO4PS,"InChI=1S/C6H10NO4PS/c1-5-6(13-4-7-5)2-3-11-12(8,9)10/h4H,2-3H2,1H3,(H2,8,9,10)",223.186661,-6.48175191891,-0.7755244739249996,5.706227444985,2.752825923296459
000001139,OC1CC(OC1COP(=O)(O)O)n1cc(C)c(=O)[nH]c1=O,C10H15N2O8P,"InChI=1S/C10H15N2O8P/c1-5-3-12(10(15)11-9(5)14)8-2-6(13)7(20-8)4-19-21(16,17)18/h3,6-8,13H,2,4H2,1H3,(H,11,14,15)(H2,16,17,18)",322.208461,-6.2232437609349995,-0.8816488756199998,5.341594885315,4.703547977671749
000001140,Cc1ccccc1,C7H8,"InChI=1S/C7H8/c1-7-5-3-2-4-6-7/h2-6H,1H3",92.13842,-6.364742963195,0.07891301664500006,6.44365597984,0.320562480415285
000001141,OC1C(=CC=CC1O)C,C7H10O2,"InChI=1S/C7H10O2/c1-5-3-2-4-6(8)7(5)9/h2-4,6-9H,1H3",126.1531,-6.027321788575001,-1.0694074324649998,4.957914356110001,2.747493938280847
000001143,OCC1OC(OC2OC(CO)C(C(C2O)O)O)C(C(C1O)O)O,C12H22O11,"InChI=1S/C12H22O11/c13-1-3-5(15)7(17)9(19)11(21-3)23-12-10(20)8(18)6(16)4(2-14)22-12/h3-20H,1-2H2",342.29648,-6.726654384360001,1.4122708840950002,8.138925268455,3.4755499921779287
000001144,OCC1OC(OC2OC(COP(=O)(O)O)C(C(C2O)O)O)C(C(C1O)O)O,C12H23O14P,"InChI=1S/C12H23O14P/c13-1-3-5(14)7(16)9(18)11(24-3)26-12-10(19)8(17)6(15)4(25-12)2-23-27(20,21)22/h3-19H,1-2H2,(H2,20,21,22)",422.276381,-6.7348177998750005,0.5496699780099998,7.284487777885,6.107849260744816
000001145,[O-][N+](C)(C)C,C3H9NO,"InChI=1S/C3H9NO/c1-4(2,3)5/h1-3H3",75.10966,-5.0395485112600005,1.8313262138650002,6.870874725125001,4.172567290234874
000001146,CN(C)C,C3H9N,InChI=1S/C3H9N/c1-4(2)3/h1-3H3,59.11026,-5.787861600135,2.293919759715,8.08178135985,0.7975239843634798
000001148,OC(=O)C(Cc1c[nH]c2c1cccc2)N,C11H12N2O2,"InChI=1S/C11H12N2O2/c12-9(11(14)15)5-7-6-13-10-4-2-1-3-8(7)10/h1-4,6,9,13H,5,12H2,(H,14,15)",204.22518,-5.804188431165,-0.6040927481100002,5.200095683054999,4.138378521671259
000001150,NCCc1c[nH]c2c1cccc2,C10H12N2,"InChI=1S/C10H12N2/c11-6-5-8-7-12-10-4-2-1-3-9(8)10/h1-4,7,12H,5-6,11H2",160.21568,-5.28989325372,-0.11156667870499959,5.178326575015,1.3234286219566205
000001151,OC1CC(OC1COP(=O)(OP(=O)(OP(=O)(O)O)O)O)n1cc(C)c(=O)[nH]c1=O,C10H17N2O14P3,"InChI=1S/C10H17N2O14P3/c1-5-3-12(10(15)11-9(5)14)8-2-6(13)7(24-8)4-23-28(19,20)26-29(21,22)25-27(16,17)18/h3,6-8,13H,2,4H2,1H3,(H,19,20)(H,21,22)(H,11,14,15)(H2,16,17,18)",482.168263,-6.5252901349900005,-1.2925407898749999,5.232749345115001,5.062786006268189
000001153,OC(=O)C(Cc1ccc(cc1)O)N,C9H11NO3,"InChI=1S/C9H11NO3/c10-8(9(12)13)5-6-1-3-7(11)4-2-6/h1-4,8,11H,5,10H2,(H,12,13)",181.18854,-6.19875351439,-0.5170163159500003,5.68173719844,3.3686729045903228
000001158,OC1C(COP(=O)(OP(=O)(O)O)O)OC(C1O)n1ccc(=O)[nH]c1=O,C9H14N2O12P2,"InChI=1S/C9H14N2O12P2/c12-5-1-2-11(9(15)10-5)8-7(14)6(13)4(22-8)3-21-25(19,20)23-24(16,17)18/h1-2,4,6-8,13-14H,3H2,(H,19,20)(H,10,12,15)(H2,16,17,18)",404.161182,-7.023258481405,-1.5918660254250003,5.431392455979999,2.519553504950034
000001172,OC1C(O)C(OC1n1ccc(=O)[nH]c1=O)COP(=O)(O)O,C9H13N2O9P,"InChI=1S/C9H13N2O9P/c12-5-1-2-11(9(15)10-5)8-7(14)6(13)4(20-8)3-19-21(16,17)18/h1-2,4,6-8,13-14H,3H2,(H,10,12,15)(H2,16,17,18)",324.181281,-6.97155684981,-1.5891448869199998,5.38241196289,3.4624762600966665
000001174,O=c1cc[nH]c(=O)[nH]1,C4H4N2O2,"InChI=1S/C4H4N2O2/c7-3-1-2-5-4(8)6-3/h1-2H,(H2,5,6,7,8)",112.08676,-6.84638447858,-1.26260826632,5.58377621226,4.130381860569916
000001175,O=c1[nH]c2c([nH]1)[nH]c(=O)[nH]c2=O,C5H4N4O3,"InChI=1S/C5H4N4O3/c10-3-1-2(7-4(11)6-1)8-5(12)9-3/h(H4,6,7,8,9,10,11,12)",168.11026,-5.83412095472,-0.9877732773150001,4.846347677405,2.947524565125963
000001176,NC(=O)N,CH4N2O,"InChI=1S/CH4N2O/c2-1(3)4/h(H4,2,3,4)",60.05526,-6.783798292965,1.6354042415049994,8.41920253447,4.146532180563537
000001177,OCC1OC(C(C1O)O)n1ccc(=O)[nH]c1=O,C9H12N2O6,"InChI=1S/C9H12N2O6/c12-3-4-6(14)7(15)8(17-4)11-2-1-5(13)10-9(11)16/h1-2,4,6-8,12,14-15H,3H2,(H,10,13,16)",244.20138,-6.7348177998750005,-1.39322291456,5.341594885315001,4.375374793176695
000001178,OC(=O)C=Cc1cnc[nH]1,C6H6N2O2,"InChI=1S/C6H6N2O2/c9-6(10)2-1-5-3-7-4-8-5/h1-4H,(H,7,8)(H,9,10)",138.12404,-6.234128314955,-1.9728254161249996,4.26130289883,3.1578511419555544
000001181,OC1C(COP(=O)(OP(=O)(OP(=O)(O)O)O)O)OC(C1O)n1ccc(=O)[nH]c1=O,C9H15N2O15P3,"InChI=1S/C9H15N2O15P3/c12-5-1-2-11(9(15)10-5)8-7(14)6(13)4(24-8)3-23-28(19,20)26-29(21,22)25-27(16,17)18/h1-2,4,6-8,13-14H,3H2,(H,19,20)(H,21,22)(H,10,12,15)(H2,16,17,18)",484.141083,-6.4028389022650005,-1.0204269393750005,5.38241196289,7.587463030685619
000001182,NC(C(=O)O)C(C)C,C5H11NO2,"InChI=1S/C5H11NO2/c1-3(2)4(6)5(7)8/h3-4H,6H2,1-2H3,(H,7,8)",117.14634,-6.63413567519,0.11973009422000036,6.75386576941,3.0740849715734924
000001183,COc1cc(C=O)ccc1O,C8H8O3,"InChI=1S/C8H8O3/c1-11-8-4-6(5-9)2-3-7(8)10/h2-5,10H,1H3",152.14732,-5.994668126515,-1.341521282965,4.65314684355,2.6604362742358627
000001188,O=c1[nH]c(=O)c2c([nH]1)nc[nH]2,C5H4N4O2,"InChI=1S/C5H4N4O2/c10-4-2-3(7-1-6-2)8-5(11)9-4/h1H,(H3,6,7,8,9,10,11)",152.11086,-6.288551085055,-1.26260826632,5.025942818735,3.9788551873532665
000001189,OCC1OC(C(C1O)O)n1cnc2c1[nH]c(=O)[nH]c2=O,C10H12N4O6,"InChI=1S/C10H12N4O6/c15-1-3-5(16)6(17)9(20-3)14-2-11-4-7(14)12-10(19)13-8(4)18/h2-3,5-6,9,15-17H,1H2,(H2,12,13,18,19)",284.22548,-6.06269658914,-0.5959293325950004,5.466767256544999,7.213658412163484
000001190,O=c1[nH]c(=O)c2c([nH]1)n(cn2)C1OC(C(C1O)O)COP(=O)(O)O,C10H13N4O9P,"InChI=1S/C10H13N4O9P/c15-5-3(1-22-24(19,20)21)23-9(6(5)16)14-2-11-4-7(14)12-10(18)13-8(4)17/h2-3,5-6,9,15-16H,1H2,(H2,19,20,21)(H2,12,13,17,18)",364.205381,-6.196032375885,-0.7292651193399999,5.466767256545,5.352431364828232
000001192,OC(C(=O)COP(=O)(O)O)C(COP(=O)(O)O)O,C5H12O11P2,"InChI=1S/C5H12O11P2/c6-3(1-15-17(9,10)11)5(8)4(7)2-16-18(12,13)14/h3,5-6,8H,1-2H2,(H2,9,10,11)(H2,12,13,14)",310.089702,-7.30897802443,-1.7333652276849998,5.575612796745,1.9390124364167962
000001193,OC(C(C(C(=O)COP(=O)(O)O)O)O)C(COP(=O)(O)O)O,C7H16O13P2,"InChI=1S/C7H16O13P2/c8-3(1-19-21(13,14)15)5(10)7(12)6(11)4(9)2-20-22(16,17)18/h3,5-8,10-12H,1-2H2,(H2,13,14,15)(H2,16,17,18)",370.141662,-6.97155684981,-1.5211164242950002,5.450440425515,1.9274362474450355
000001194,OC(=O)C1=NCCCC1,C6H9NO2,"InChI=1S/C6H9NO2/c8-6(9)5-3-1-2-4-7-5/h1-4H2,(H,8,9)",127.14116,-6.996047096355,-1.6326831029999997,5.363363993355001,4.860386754069165
000001195,CC(=C)CCOP(=O)(OP(=O)(O)O)O,C5H12O7P2,"InChI=1S/C5H12O7P2/c1-5(2)3-4-11-14(9,10)12-13(6,7)8/h1,3-4H2,2H3,(H,9,10)(H2,6,7,8)",246.092102,-6.571549489575,-0.22857563442000028,6.342973855155,2.641798048630137