mol_id,SMILES,formula,inchi,mass,HOMO(eV),LUMO(eV),GAP(eV),dipole_moment
000003469,Oc1ccc(c(c1)C(=O)O)O,C7H6O4,"InChI=1S/C7H6O4/c8-4-1-2-6(9)5(3-4)7(10)11/h1-3,8-9H,(H,10,11)",154.12014,-6.051812035119999,-1.363290391005,4.688521644114999,5.311515597885974
000003470,CC1=CCCC(=CCC(CC1)C(=C)C)C,C15H24,"InChI=1S/C15H24/c1-12(2)15-10-8-13(3)6-5-7-14(4)9-11-15/h6,9,15H,1,5,7-8,10-11H2,2-4H3",204.35106,-5.38241196289,0.6666789337250005,6.0490908966150005,0.7439196657260783
000003471,CCCCCC(=O)OC1(CCC2C1(C)CCC1C2CCC2=CC(=O)CCC12)C(=O)C,C26H38O4,"InChI=1S/C26H38O4/c1-4-5-6-7-24(29)30-26(17(2)27)15-13-23-22-10-8-18-16-19(28)9-11-20(18)21(22)12-14-25(23,26)3/h16,20-23H,4-15H2,1-3H3",414.57752,-6.1797055448550005,-1.1238302025650002,5.05587534229,7.344780142388538
000003473,CCCCCC(CC(=O)CCc1ccc(c(c1)OC)O)O,C17H26O4,"InChI=1S/C17H26O4/c1-3-4-5-6-14(18)12-15(19)9-7-13-8-10-16(20)17(11-13)21-2/h8,10-11,14,18,20H,3-7,9,12H2,1-2H3",294.38594,-5.559285965715,-0.742870811865,4.81641515385,4.856969600057735
000003474,OCC(COC(=O)c1ccccc1Nc1ccnc2c1ccc(c2)Cl)O,C19H17ClN2O4,"InChI=1S/C19H17ClN2O4/c20-12-5-6-14-17(7-8-21-18(14)9-12)22-16-4-2-1-3-15(16)19(25)26-11-13(24)10-23/h1-9,13,23-24H,10-11H2,(H,21,22)",372.80228,-5.71983313751,-1.7687400282499999,3.9510931092600003,6.317518844043205
000003475,O=C(NS(=O)(=O)c1ccc(cc1)C)NN1CC2C(C1)CCC2,C15H21N3O3S,"InChI=1S/C15H21N3O3S/c1-11-5-7-14(8-6-11)22(20,21)17-15(19)16-18-9-12-3-2-4-13(12)10-18/h5-8,12-13H,2-4,9-10H2,1H3,(H2,16,17,19)",323.41054,-5.97562015698,-1.4122708840950002,4.563349272885,4.623160070173863
000003476,CCC1=C(C)CN(C1=O)C(=O)NCCc1ccc(cc1)S(=O)(=O)NC(=O)NC1CCC(CC1)C,C24H34N4O5S,"InChI=1S/C24H34N4O5S/c1-4-21-17(3)15-28(22(21)29)24(31)25-14-13-18-7-11-20(12-8-18)34(32,33)27-23(30)26-19-9-5-16(2)6-10-19/h7-8,11-12,16,19H,4-6,9-10,13-15H2,1-3H3,(H,25,31)(H2,26,27,30)",490.61556,-6.55250152004,-1.2734928203399996,5.2790086997,7.212007927435604
000003478,Cc1ncc(nc1)C(=O)NCCc1ccc(cc1)S(=O)(=O)NC(=O)NC1CCCCC1,C21H27N5O4S,"InChI=1S/C21H27N5O4S/c1-15-13-24-19(14-23-15)20(27)22-12-11-16-7-9-18(10-8-16)31(29,30)26-21(28)25-17-5-3-2-4-6-17/h7-10,13-14,17H,2-6,11-12H2,1H3,(H,22,27)(H2,25,26,28)",445.53518,-6.685837306785,-1.8340473523699998,4.8517899544150005,6.454904498469207
000003479,OCC1N=C(NO)C(C(C1O)O)O,C6H12N2O5,"InChI=1S/C6H12N2O5/c9-1-2-3(10)4(11)5(12)6(7-2)8-13/h2-5,9-13H,1H2,(H,7,8)",192.16988,-6.4028389022650005,-0.3918439447199997,6.010994957545001,0.8383260540016635
000003482,OC1OC(C(=O)N)C(C(C1O)O)O,C6H11NO6,"InChI=1S/C6H11NO6/c7-5(11)4-2(9)1(8)3(10)6(12)13-4/h1-4,6,8-10,12H,(H2,7,11)",193.15464,-6.870874725125,0.144220340765,7.01509506589,2.4774885783514726
000003483,OC1C(O)OC2C1OC(=O)C2O,C6H8O6,"InChI=1S/C6H8O6/c7-1-3-4(12-5(1)9)2(8)6(10)11-3/h1-5,7-9H",176.12412,-7.050469866455,-0.7972935819650004,6.253176284489999,4.339106028764335
000003484,ONC(=O)CCC(C(=O)O)N,C5H10N2O4,"InChI=1S/C5H10N2O4/c6-3(5(9)10)1-2-4(8)7-11/h3,11H,1-2,6H2,(H,7,8)(H,9,10)",162.1439,-6.489915334425,-0.8190626900049995,5.67085264442,4.59712234675487
000003485,O=CCCCC=O,C5H8O2,"InChI=1S/C5H8O2/c6-4-2-1-3-5-7/h4-5H,1-3H2",100.11582,-6.8790381406400005,-0.90886026067,5.9701778799700005,2.789690401595847
000003486,O=C(NC(C(=O)NCC(=O)O)CS(=O)(=O)O)CCC(C(=O)O)N,C10H17N3O9S,"InChI=1S/C10H17N3O9S/c11-5(10(18)19)1-2-7(14)13-6(4-23(20,21)22)9(17)12-3-8(15)16/h5-6H,1-4,11H2,(H,12,17)(H,13,14)(H,15,16)(H,18,19)(H,20,21,22)",355.32168,-6.68855844529,-1.03947490891,5.64908353638,8.221543631100001
000003487,CCC1(CCC(=O)NC1=O)c1ccccc1,C13H15NO2,"InChI=1S/C13H15NO2/c1-2-13(10-6-4-3-5-7-10)9-8-11(15)14-12(13)16/h3-7H,2,8-9H2,1H3,(H,14,15,16)",217.2637,-6.67223161426,-0.8272261055200003,5.84500550874,3.0847946070301018
000003488,COc1ccc(cc1C(=O)NCCc1ccc(cc1)S(=O)(=O)NC(=O)NC1CCCCC1)Cl,C23H28ClN3O5S,"InChI=1S/C23H28ClN3O5S/c1-32-21-12-9-17(24)15-20(21)22(28)25-14-13-16-7-10-19(11-8-16)33(30,31)27-23(29)26-18-5-3-2-4-6-18/h7-12,15,18H,2-6,13-14H2,1H3,(H,25,28)(H2,26,27,29)",494.00352,-6.288551085055,-1.24083915828,5.047711926775,6.881520239091142
000003489,CC(c1nnc(s1)NS(=O)(=O)c1ccccc1)(C)C,C12H15N3O2S2,"InChI=1S/C12H15N3O2S2/c1-12(2,3)10-13-14-11(18-10)15-19(16,17)9-7-5-4-6-8-9/h4-8H,1-3H3,(H,14,15)",297.3964,-6.00827381904,-1.825883936855,4.182389882185,5.683316610427137
000003491,O=NSC(C(C(=O)NC1OC(CO)C(C(C1O)O)O)NC(=O)OC)(C)C,C13H23N3O9S,"InChI=1S/C13H23N3O9S/c1-13(2,26-16-23)9(14-12(22)24-3)10(21)15-11-8(20)7(19)6(18)5(4-17)25-11/h5-9,11,17-20H,4H2,1-3H3,(H,14,22)(H,15,21)",397.40142,-5.19193226754,-1.548327809345,3.6436044581950005,4.056537338635625
000003492,O=NSC(C(C(=O)NC1C(O)OC(C(C1O)O)CO)NC(=O)OC)(C)C,C13H23N3O9S,"InChI=1S/C13H23N3O9S/c1-13(2,26-16-23)9(15-12(22)24-3)10(20)14-6-8(19)7(18)5(4-17)25-11(6)21/h5-9,11,17-19,21H,4H2,1-3H3,(H,14,20)(H,15,22)",397.40142,-5.401459932425,-1.7551343357249998,3.6463255967000006,4.497918897924795
000003493,OC1CCC2(C(C1)CCC1C2CC(O)C2(C1CCC2C(CCC(=O)NCC(=O)O)C)C)C,C26H43NO5,"InChI=1S/C26H43NO5/c1-15(4-9-23(30)27-14-24(31)32)19-7-8-20-18-6-5-16-12-17(28)10-11-25(16,2)21(18)13-22(29)26(19,20)3/h15-22,28-29H,4-14H2,1-3H3,(H,27,30)(H,31,32)",449.62332,-6.45454053386,0.13605692525000013,6.5905974591100005,2.8038651194301414
000003496,OC(=O)CNCP(=O)(O)O,C3H8NO5P,"InChI=1S/C3H8NO5P/c5-3(6)1-4-2-10(7,8)9/h4H,1-2H2,(H,5,6)(H2,7,8,9)",169.073081,-6.881759279145,-0.14149920226000035,6.740260076885,3.4453971765545406
000003497,CC(CC(C(=O)NC(C(=O)NC(c1ccccc1)C)Cc1c[nH]c2c1cccc2)CC(=O)O)C,C27H33N3O4,"InChI=1S/C27H33N3O4/c1-17(2)13-20(15-25(31)32)26(33)30-24(14-21-16-28-23-12-8-7-11-22(21)23)27(34)29-18(3)19-9-5-4-6-10-19/h4-12,16-18,20,24,28H,13-15H2,1-3H3,(H,29,34)(H,30,33)(H,31,32)",463.56862,-5.66541036741,-0.6830057647550003,4.9824046026549995,9.848292935741705
000003498,ONC(=O)CC(C(=O)NC(C(=O)NC)Cc1c[nH]c2c1cccc2)CC(C)C,C20H28N4O4,"InChI=1S/C20H28N4O4/c1-12(2)8-13(10-18(25)24-28)19(26)23-17(20(27)21-3)9-14-11-22-16-7-5-4-6-15(14)16/h4-7,11-13,17,22,28H,8-10H2,1-3H3,(H,21,27)(H,23,26)(H,24,25)",388.46072,-5.298056669235001,-0.11700895571499981,5.181047713520001,5.946800490968063
000003499,COc1ccc2c(c1)c(cn2CCCN(C)C)C1=C(C(=O)NC1=O)c1c[nH]c2c1cccc2,C26H26N4O3,"InChI=1S/C26H26N4O3/c1-29(2)11-6-12-30-15-20(18-13-16(33-3)9-10-22(18)30)24-23(25(31)28-26(24)32)19-14-27-21-8-5-4-7-17(19)21/h4-5,7-10,13-15,27H,6,11-12H2,1-3H3,(H,28,31,32)",442.50964,-5.18648999053,-2.0218059092150003,3.164684081315,7.490763086383457
000003500,COc1ccc2c(c1)c1c3c(=O)[nH]c(=O)c3c3c(c1n2CC(CN(C)C)O)n(C)c1c3cccc1,C27H26N4O4,"InChI=1S/C27H26N4O4/c1-29(2)12-14(32)13-31-19-10-9-15(35-4)11-17(19)21-23-22(26(33)28-27(23)34)20-16-7-5-6-8-18(16)30(3)24(20)25(21)31/h5-11,14,32H,12-13H2,1-4H3,(H,28,33,34)",470.51974,-5.2490761761449996,-1.847653044895,3.4014231312499996,7.53106913660119
000003501,N#CCCn1c2ccccc2c2c1c1c(c3c2CNC3=O)c2c(n1C)cccc2,C24H18N4O,"InChI=1S/C24H18N4O/c1-27-17-9-4-2-7-14(17)20-21-16(13-26-24(21)29)19-15-8-3-5-10-18(15)28(12-6-11-25)23(19)22(20)27/h2-5,7-10H,6,12-13H2,1H3,(H,26,29)",378.42592,-5.64908353638,-1.428597715125,4.220485821255,4.410691208843122
000003504,CCC(C(=O)C(=O)N1CCCC1C(=O)OCCCc1cccnc1)(C)C,C20H28N2O4,"InChI=1S/C20H28N2O4/c1-4-20(2,3)17(23)18(24)22-12-6-10-16(22)19(25)26-13-7-9-15-8-5-11-21-14-15/h5,8,11,14,16H,4,6-7,9-10,12-13H2,1-3H3",360.44732,-6.353858409175,-1.0585228784450003,5.29533553073,4.334393430547232
000003505,COC(=O)N1CCN(C(C1)CN1CCCC1)C(=O)Cc1ccc(c(c1)Cl)Cl,C19H25Cl2N3O3,"InChI=1S/C19H25Cl2N3O3/c1-27-19(26)23-8-9-24(15(13-23)12-22-6-2-3-7-22)18(25)11-14-4-5-16(20)17(21)10-14/h4-5,10,15H,2-3,6-9,11-13H2,1H3",414.3261,-5.542959134685,-0.9251870916999998,4.617772042985,2.872666224799881
000003508,C=CCC(C1CCCC1O)C=O,C10H16O2,"InChI=1S/C10H16O2/c1-2-4-8(7-11)9-5-3-6-10(9)12/h2,7-10,12H,1,3-6H2",168.23284,-6.4763096418999995,-0.6013716096049997,5.874938032295,4.299366012625117
000003509,CCCN(C(=O)C1OC(CC(C1NC(=O)C)N)C(=O)O)CCc1ccccc1,C20H29N3O5,"InChI=1S/C20H29N3O5/c1-3-10-23(11-9-14-7-5-4-6-8-14)19(25)18-17(22-13(2)24)15(21)12-16(28-18)20(26)27/h4-8,15-18H,3,9-12,21H2,1-2H3,(H,22,24)(H,26,27)",391.46136,-6.462703949375,-0.20952766488499996,6.25317628449,5.921716140677211
000003510,CN1C2CCCC1CC(C2)NC(=O)c1nn(c2c1cccc2)C,C18H24N4O,"InChI=1S/C18H24N4O/c1-21-13-6-5-7-14(21)11-12(10-13)19-18(23)17-15-8-3-4-9-16(15)22(2)20-17/h3-4,8-9,12-14H,5-7,10-11H2,1-2H3,(H,19,23)",312.40936,-5.483094087575,-1.0802919864850002,4.40280210109,2.9962824543580666
000003511,OC1CC23CC(C(C2O)CCC3C(C2C1(O)C(C)(C)C(C2)O)(C)O)(C)O,C20H34O6,"InChI=1S/C20H34O6/c1-16(2)13(21)7-12-18(4,25)11-6-5-10-15(23)19(11,9-17(10,3)24)8-14(22)20(12,16)26/h10-15,21-26H,5-9H2,1-4H3",370.48036,-6.1143982207350005,1.2109066347250002,7.325304855460001,0.9068277081309326
000003512,COC1=CC(=O)CC(C21Oc1c(C2=O)c(OC)cc(c1Cl)OC)C,C17H17ClO6,"InChI=1S/C17H17ClO6/c1-8-5-9(19)6-12(23-4)17(8)16(20)13-10(21-2)7-11(22-3)14(18)15(13)24-17/h6-8H,5H2,1-4H3",352.76628,-6.13344619027,-1.717038396655,4.416407793615,11.041354316208995
000003513,O=C1NC(=O)C(=C1Nc1ccc(c(c1)C(=O)O)Cl)c1cccc(c1)[N+](=O)[O-],C17H10ClN3O6,"InChI=1S/C17H10ClN3O6/c18-12-5-4-9(7-11(12)17(24)25)19-14-13(15(22)20-16(14)23)8-2-1-3-10(6-8)21(26)27/h1-7H,(H,24,25)(H2,19,20,22,23)",387.7308,-6.506242165455,-2.98781007849,3.5184320869650003,6.467322083965357
000003514,O=NSCC(C(=O)NCC(=O)O)NC(=O)CCC(C(=O)O)N,C10H16N4O7S,"InChI=1S/C10H16N4O7S/c11-5(10(19)20)1-2-7(15)13-6(4-22-14-21)9(18)12-3-8(16)17/h5-6H,1-4,11H2,(H,12,18)(H,13,15)(H,16,17)(H,19,20)",336.32164,-6.576991766585,-3.05311740261,3.5238743639750005,6.101248038332977
000003515,CC(c1ccc(c2c(c1)c(C)cc2)C)C,C15H18,"InChI=1S/C15H18/c1-10(2)13-7-5-11(3)14-8-6-12(4)15(14)9-13/h5-10H,1-4H3",198.30342,-4.77287693777,-1.6354042415050003,3.137472696265,1.1008131398425438
000003516,OCC(COc1ccccc1OC)O,C10H14O4,"InChI=1S/C10H14O4/c1-13-9-4-2-3-5-10(9)14-7-8(12)6-11/h2-5,8,11-12H,6-7H2,1H3",198.21576,-5.6055453203,0.03809593906999975,5.64364125937,3.9147616038964617
000003518,NC(=NCCN1CCCCCCC1)N,C10H22N4,"InChI=1S/C10H22N4/c11-10(12)13-6-9-14-7-4-2-1-3-5-8-14/h1-9H2,(H4,11,12,13)",198.30848,-5.42050790196,1.140157033595,6.560664935555,2.390782032884846
000003519,O=C(Cc1c(Cl)cccc1Cl)N=C(N)N,C9H9Cl2N3O,"InChI=1S/C9H9Cl2N3O/c10-6-2-1-3-7(11)5(6)4-8(15)14-9(12)13/h1-3H,4H2,(H4,12,13,14,15)",246.09326,-6.239570591965,-0.5061317619299999,5.733438830035,2.9411013978326217
000003521,NC(=NCCSSCCN=C(N)N)N,C6H16N6S2,"InChI=1S/C6H16N6S2/c7-5(8)11-1-3-13-14-4-2-12-6(9)10/h1-4H2,(H4,7,8,11)(H4,9,10,12)",236.36144,-5.706227444985,-0.05714390860500007,5.64908353638,0.8161772191932337
000003522,OCC1OC(C(C1OP(=O)(O)O)O)n1cnc2c1[nH]c(N)nc2=O,C10H14N5O8P,"InChI=1S/C10H14N5O8P/c11-10-13-7-4(8(18)14-10)12-2-15(7)9-5(17)6(3(1-16)22-9)23-24(19,20)21/h2-3,5-6,9,16-17H,1H2,(H2,19,20,21)(H3,11,13,14,18)",363.220621,-5.7143908605,-0.32653662059999977,5.3878542399,9.774319100275937
000003524,OCC1OC(C2C1OP(=S)(O2)O)n1cnc2c1[nH]c(N)nc2=O,C10H12N5O6PS,"InChI=1S/C10H12N5O6PS/c11-10-13-7-4(8(17)14-10)12-2-15(7)9-6-5(3(1-16)19-9)20-22(18,23)21-6/h2-3,5-6,9,16H,1H2,(H,18,23)(H3,11,13,14,17)",361.270941,-5.766092492095,-0.5605545320300003,5.205537960065,13.314865069016845
000003525,OCC1OC(C(C1O)OP(=O)(O)O)n1cnc2c1[nH]c(N)nc2=O,C10H14N5O8P,"InChI=1S/C10H14N5O8P/c11-10-13-7-4(8(18)14-10)12-2-15(7)9-6(23-24(19,20)21)5(17)3(1-16)22-9/h2-3,5-6,9,16-17H,1H2,(H2,19,20,21)(H3,11,13,14,18)",363.220621,-5.92663966389,-0.47892037687999967,5.44771928701,10.169031554154309
000003526,NC(=NCCCCCCCCNCCCCCCCCN=C(N)N)N,C18H41N7,"InChI=1S/C18H41N7/c19-17(20)24-15-11-7-3-1-5-9-13-23-14-10-6-2-4-8-12-16-25-18(21)22/h23H,1-16H2,(H4,19,20,24)(H4,21,22,25)",355.56504,-5.727996553025,1.0993399560199997,6.827336509045,2.2776792674309965
000003532,OC(=O)C1=CCCNC1,C6H9NO2,"InChI=1S/C6H9NO2/c8-6(9)5-2-1-3-7-4-5/h2,7H,1,3-4H2,(H,8,9)",127.14116,-6.364742963195,-0.7891301664499997,5.575612796745,4.13113512516318
000003533,CC(=NCCSCCC(C(=O)O)N)N,C8H17N3O2S,"InChI=1S/C8H17N3O2S/c1-6(9)11-3-5-14-4-2-7(10)8(12)13/h7H,2-5,10H2,1H3,(H2,9,11)(H,12,13)",219.30448,-6.0790234201699995,0.11428781721000014,6.19331123738,1.7850238026370964
000003534,Nc1nc(N)c2c(n1)cccc2Sc1ccc(cc1)N1CCOCC1,C18H19N5OS,"InChI=1S/C18H19N5OS/c19-17-16-14(21-18(20)22-17)2-1-3-15(16)25-13-6-4-12(5-7-13)23-8-10-24-11-9-23/h1-7H,8-11H2,(H4,19,20,21,22)",353.44136,-5.19193226754,-1.140157033595,4.051775233945,1.9169981921120842
000003537,Nc1nc(N)c2c(n1)cccc2Sc1ccc(cc1)C(C)(C)C,C18H20N4S,"InChI=1S/C18H20N4S/c1-18(2,3)11-7-9-12(10-8-11)23-14-6-4-5-13-15(14)16(19)22-17(20)21-13/h4-10H,1-3H3,(H4,19,20,21,22)",324.4432,-5.396017655415,-1.2163489117349995,4.179668743680001,1.6782308526114635
000003538,Nc1ccc(cc1)C1=NN=C(Cc2c1cc1OCOc1c2)C,C17H15N3O2,"InChI=1S/C17H15N3O2/c1-10-6-12-7-15-16(22-9-21-15)8-14(12)17(20-19-10)11-2-4-13(18)5-3-11/h2-5,7-8H,6,9,18H2,1H3",293.3199,-5.181047713520001,-1.0476383244249998,4.133409389095001,3.6514717770040344
000003539,CC1NN=C(c2c(C1)cc1OCOc1c2)c1ccc(cc1)N,C17H17N3O2,"InChI=1S/C17H17N3O2/c1-10-6-12-7-15-16(22-9-21-15)8-14(12)17(20-19-10)11-2-4-13(18)5-3-11/h2-5,7-8,10,19H,6,9,18H2,1H3",295.33578,-4.748386691225,-0.41089191425500005,4.33749477697,1.7003515440581691
000003540,CNCCNS(=O)(=O)c1cccc2c1ccnc2,C12H15N3O2S,"InChI=1S/C12H15N3O2S/c1-13-7-8-15-18(16,17)12-4-2-3-10-9-14-6-5-11(10)12/h2-6,9,13,15H,7-8H2,1H3",265.3314,-6.228686037945,-2.04085387875,4.187832159195,4.36514933944281
000003542,CC1CNCCN1S(=O)(=O)c1cccc2c1ccnc2,C14H17N3O2S,"InChI=1S/C14H17N3O2S/c1-11-9-16-7-8-17(11)20(18,19)14-4-2-3-12-10-15-6-5-13(12)14/h2-6,10-11,16H,7-9H2,1H3",291.36868,-5.755207938075,-2.0517384327699997,3.7034695053050006,4.110521884482067
000003543,NC1CCC(CC1)Nc1nc(NCc2ccccc2)c2c(n1)n(cn2)C1CCCC1,C23H31N7,"InChI=1S/C23H31N7/c24-17-10-12-18(13-11-17)27-23-28-21(25-14-16-6-2-1-3-7-16)20-22(29-23)30(15-26-20)19-8-4-5-9-19/h1-3,6-7,15,17-19H,4-5,8-14,24H2,(H2,25,27,28,29)",405.53914,-5.02322168023,-0.2612292964799998,4.76199238375,2.31886856444366
000003544,NCCNS(=O)(=O)c1cccc2c1ccnc2,C11H13N3O2S,"InChI=1S/C11H13N3O2S/c12-5-7-14-17(15,16)11-3-1-2-9-8-13-6-4-10(9)11/h1-4,6,8,14H,5,7,12H2",251.30482,-6.462703949375,-2.0952766488500005,4.367427300525,4.040810103082549
000003545,O=S(=O)(c1cccc2c1ccnc2)N1CCNCC1,C13H15N3O2S,"InChI=1S/C13H15N3O2S/c17-19(18,16-8-6-14-7-9-16)13-3-1-2-11-10-15-5-4-12(11)13/h1-5,10,14H,6-9H2",277.3421,-6.0137160960500005,-2.0680652638,3.9456508322500006,3.3216177550157693
000003546,NC(=NCCNS(=O)(=O)c1cccc2c1ccnc2)N,C12H15N5O2S,"InChI=1S/C12H15N5O2S/c13-12(14)16-6-7-17-20(18,19)11-3-1-2-9-8-15-5-4-10(9)11/h1-5,8,17H,6-7H2,(H4,13,14,16)",293.3448,-5.766092492095,-2.206843327555,3.5592491645399997,2.768517785359162
000003547,O=S(=O)(c1cccc2c1ccnc2)N1CCNCCC1,C14H17N3O2S,"InChI=1S/C14H17N3O2S/c18-20(19,17-9-2-6-15-8-10-17)14-4-1-3-12-11-16-7-5-13(12)14/h1,3-5,7,11,15H,2,6,8-10H2",291.36868,-6.22052262243,-2.0082002166899997,4.21232240574,4.86921327007413
000003548,N1CCCC(CC1)Sc1cccc2c1ccnc2,C15H18N2S,"InChI=1S/C15H18N2S/c1-3-12-11-17-10-7-14(12)15(5-1)18-13-4-2-8-16-9-6-13/h1,3,5,7,10-11,13,16H,2,4,6,8-9H2",258.38182,-5.80146729266,-1.59458716393,4.20688012873,3.114006846305576
000003552,ClN(S(=O)(=O)c1ccc(cc1)C(=O)O)Cl,C7H5Cl2NO4S,"InChI=1S/C7H5Cl2NO4S/c8-10(9)15(13,14)6-3-1-5(2-4-6)7(11)12/h1-4H,(H,11,12)",270.0899,-7.2191804537649995,-2.6531100423750003,4.566070411389999,2.924636713891317
000003553,ClCC(=O)C12OC(OC1CC1C2(C)CC(O)C2(C1CCC1=CC(=O)CCC21C)F)(C)C,C24H32ClFO5,"InChI=1S/C24H32ClFO5/c1-20(2)30-19-10-16-15-6-5-13-9-14(27)7-8-21(13,3)23(15,26)17(28)11-22(16,4)24(19,31-20)18(29)12-25/h9,15-17,19,28H,5-8,10-12H2,1-4H3",454.9592832,-6.1361673287750005,-1.1292724795750004,5.0068948492,7.409267487011857
000003559,Fc1ccc(cc1)C(=O)CCCN1CCC(CC1)(O)c1ccc(cc1)Cl,C21H23ClFNO2,"InChI=1S/C21H23ClFNO2/c22-18-7-5-17(6-8-18)21(26)11-14-24(15-12-21)13-1-2-20(25)16-3-9-19(23)10-4-16/h3-10,26H,1-2,11-15H2",375.8642232,-6.32392588562,-1.428597715125,4.895328170495,3.3922081656384235
000003568,COCc1cc(O)c(c(c1c1c(COC)cc(c(c1O)O)O)O)O,C16H18O8,"InChI=1S/C16H18O8/c1-23-5-7-3-9(17)13(19)15(21)11(7)12-8(6-24-2)4-10(18)14(20)16(12)22/h3-4,17-22H,5-6H2,1-2H3",338.30932,-5.27356642269,-0.10884554019999992,5.16472088249,5.4588951513423485
000003570,CCn1c2ccccc2c2c1c1[nH]c3c(c1c1c2c(=O)[nH]c1=O)cccc3,C22H15N3O2,"InChI=1S/C22H15N3O2/c1-2-25-14-10-6-4-8-12(14)16-18-17(21(26)24-22(18)27)15-11-7-3-5-9-13(11)23-19(15)20(16)25/h3-10,23H,2H2,1H3,(H,24,26,27)",353.3734,-5.4504404255150005,-1.9129603690149999,3.5374800565000006,6.441863324899093
000003571,O=C1NC(CCCCCC(=O)C2CO2)C(=O)N2CCCC2C(=O)NC(C(=O)NC1C)C,C21H32N4O6,"InChI=1S/C21H32N4O6/c1-12-18(27)22-13(2)19(28)24-14(7-4-3-5-9-16(26)17-11-31-17)21(30)25-10-6-8-15(25)20(29)23-12/h12-15,17H,3-11H2,1-2H3,(H,22,27)(H,23,29)(H,24,28)",436.50198,-6.34025271665,-0.8381106595399999,5.50214205711,2.9136964872261486
000003572,CCCCCCCCCCCCCCCCS(=O)(=O)F,C16H33FO2S,"InChI=1S/C16H33FO2S/c1-2-3-4-5-6-7-8-9-10-11-12-13-14-15-16-20(17,18)19/h2-16H2,1H3",308.4954232,-7.57020732091,0.64218868718,8.21239600809,4.939914129286156
000003573,CC1CCC2(OC1)OC1C(C2C)C2(C(C1)C1CCC3C(C1CC2=O)(C)CCC(C3)O)C,C27H42O4,"InChI=1S/C27H42O4/c1-15-7-10-27(30-14-15)16(2)24-22(31-27)12-21-19-6-5-17-11-18(28)8-9-25(17,3)20(19)13-23(29)26(21,24)4/h15-22,24,28H,5-14H2,1-4H3",430.61998,-6.272224254025001,-0.33470003611499966,5.937524217910001,1.3124907894252058
000003575,CC1=CCCC2(C1C1OC(=O)C(=C)C1CC2)C,C15H20O2,"InChI=1S/C15H20O2/c1-9-5-4-7-15(3)8-6-11-10(2)14(16)17-13(11)12(9)15/h5,11-13H,2,4,6-8H2,1,3H3",232.3181,-6.13344619027,-1.3251944519350003,4.808251738335,4.3978392071671975
000003586,CCCCCC=CCC1OC1C=CC(CC=CCCCC(=O)O)O,C20H32O4,"InChI=1S/C20H32O4/c1-2-3-4-5-6-10-13-18-19(24-18)16-15-17(21)12-9-7-8-11-14-20(22)23/h6-7,9-10,15-19,21H,2-5,8,11-14H2,1H3,(H,22,23)",336.46568,-6.462703949375,-0.21224880338999963,6.250455145985001,5.19117033345526
000003587,CCCCCC=CCC1OC1C(C=CCC=CCCCC(=O)O)O,C20H32O4,"InChI=1S/C20H32O4/c1-2-3-4-5-9-12-15-18-20(24-18)17(21)14-11-8-6-7-10-13-16-19(22)23/h6-7,9,11-12,14,17-18,20-21H,2-5,8,10,13,15-16H2,1H3,(H,22,23)",336.46568,-6.560664935555001,-0.19047969534999964,6.370185240205001,5.08374334814062
000003589,ClC1C=CC2C1C1(Cl)C(=C(C2(C1(Cl)Cl)Cl)Cl)Cl,C10H5Cl7,"InChI=1S/C10H5Cl7/c11-4-2-1-3-5(4)9(15)7(13)6(12)8(3,14)10(9,16)17/h1-5H",373.3177,-6.90080724868,-1.1075033715349996,5.793303877145,3.4041923771056184
000003590,CC(CCCC(O)(C)C)N,C8H19NO,"InChI=1S/C8H19NO/c1-7(9)5-4-6-8(2,3)10/h7,10H,4-6,9H2,1-3H3",145.24256,-5.98106243399,1.9592197235999995,7.94028215759,1.1217045639721719
000003592,CC(=O)OC1C=CC2C34C1Oc1c4c(CC2N(CC3)C)ccc1OC(=O)C,C21H23NO5,"InChI=1S/C21H23NO5/c1-11(23)25-16-6-4-13-10-15-14-5-7-17(26-12(2)24)20-21(14,8-9-22(15)3)18(13)19(16)27-20/h4-7,14-15,17,20H,8-10H2,1-3H3",369.41102,-5.3062200847500005,-1.3333578674500002,3.9728622173000003,1.0029095807723647
000003593,COc1ccc(cc1O)C1CC(=O)c2c(O1)cc(cc2O)O,C16H14O6,"InChI=1S/C16H14O6/c1-21-13-3-2-8(4-10(13)18)14-7-12(20)16-11(19)5-9(17)6-15(16)22-14/h2-6,14,17-19H,7H2,1H3",302.27876,-5.65452581339,-1.2435602967849997,4.410965516605001,4.223293812529031
000003596,OC(=O)C1N2C(=O)C(C2SC1(C)C)N1C(=O)C(NC1(C)C)c1ccccc1,C19H23N3O4S,"InChI=1S/C19H23N3O4S/c1-18(2)13(17(25)26)21-15(24)12(16(21)27-18)22-14(23)11(20-19(22,3)4)10-8-6-5-7-9-10/h5-9,11-13,16,20H,1-4H3,(H,25,26)",389.46862,-6.326647024125,-1.01770580087,5.308941223255,4.94214186711187
000003597,CC(=O)OC1CC2C(C3C1=COC3OC(=O)C)(C)C(O)CC1C2(C)CCC2C1(C)CCCC2(C)C,C29H44O6,"InChI=1S/C29H44O6/c1-16(30)34-19-13-22-28(6)12-9-20-26(3,4)10-8-11-27(20,5)21(28)14-23(32)29(22,7)24-18(19)15-33-25(24)35-17(2)31/h15,19-25,32H,8-14H2,1-7H3",488.65606,-5.91031283286,-0.144220340765,5.766092492095,2.7930776819610657
000003598,Clc1cc(Cl)c(c(c1O)Cc1c(O)c(Cl)cc(c1Cl)Cl)Cl,C13H6Cl6O2,"InChI=1S/C13H6Cl6O2/c14-6-2-8(16)12(20)4(10(6)18)1-5-11(19)7(15)3-9(17)13(5)21/h2-3,20-21H,1H2",406.90354,-6.103513666715,-1.341521282965,4.76199238375,4.538403578623986