mol_id,SMILES,formula,inchi,mass,HOMO(eV),LUMO(eV),GAP(eV),dipole_moment
000001643,CCN(S(=O)(=O)c1ccc(c(c1)N)Oc1ccccc1)c1ccccc1,C20H20N2O3S,"InChI=1S/C20H20N2O3S/c1-2-22(16-9-5-3-6-10-16)26(23,24)18-13-14-20(19(21)15-18)25-17-11-7-4-8-12-17/h3-15H,2,21H2,1H3",368.4494,-5.81779412369,-0.9687253077799998,4.84906881591,4.826227965953224
000001645,Nc1cccc(c1)C(=O)N,C7H8N2O,"InChI=1S/C7H8N2O/c8-6-3-1-2-5(4-6)7(9)10/h1-4H,8H2,(H2,9,10)",136.15122,-5.602824181795,-0.2612292964799998,5.341594885315001,3.9323014560844647
000001646,NCCCS(=O)(=O)O,C3H9NO3S,"InChI=1S/C3H9NO3S/c4-2-1-3-8(5,6)7/h1-4H2,(H,5,6,7)",139.17346,-6.805567401005,0.6449098256849997,7.4504772266899995,3.876135348128339
000001647,NCCC#N,C3H6N2,"InChI=1S/C3H6N2/c4-2-1-3-5/h1-2,4H2",70.09314,-6.8872015561549995,0.9823310003049999,7.869532556459999,4.171334195025136
000001650,OC(=O)CC1C(CNC1C(=O)O)C(C)C,C10H17NO4,"InChI=1S/C10H17NO4/c1-5(2)7-4-11-9(10(14)15)6(7)3-8(12)13/h5-7,9,11H,3-4H2,1-2H3,(H,12,13)(H,14,15)",215.24628,-6.9742779883149995,-0.6122561636250001,6.362021824689999,6.36915544077172
000001651,OCC1OC(C(C1O)O)n1cnc2c1ccnc2N,C11H14N4O4,"InChI=1S/C11H14N4O4/c12-10-7-5(1-2-13-10)15(4-14-7)11-9(18)8(17)6(3-16)19-11/h1-2,4,6,8-9,11,16-18H,3H2,(H2,12,13)",266.25326,-5.311662361760001,-0.3864016677100004,4.92526069405,3.2532351441028666
000001652,OCC1OC(C(C1O)O)n1ccc(cc1=O)N,C10H14N2O5,"InChI=1S/C10H14N2O5/c11-5-1-2-12(7(14)3-5)10-9(16)8(15)6(4-13)17-10/h1-3,6,8-10,13,15-16H,4,11H2",242.22856,-5.668131505915,-0.764639919905,4.90349158601,6.929701507925287
000001653,OC(=O)C1CC(O)C(C(=C1)O)O,C7H10O5,"InChI=1S/C7H10O5/c8-4-1-3(7(11)12)2-5(9)6(4)10/h1,3,5-6,8-10H,2H2,(H,11,12)",174.1513,-6.43277142582,0.20408538787499975,6.636856813695,3.3179087543243257
000001655,OC1CCC2C1(C)CCC1C2CCc2c1ccc(c2)OS(=O)(=O)O,C18H24O5S,"InChI=1S/C18H24O5S/c1-18-9-8-14-13-5-3-12(23-24(20,21)22)10-11(13)2-4-15(14)16(18)6-7-17(18)19/h3,5,10,14-17,19H,2,4,6-9H2,1H3,(H,20,21,22)",352.44516,-6.35657954768,-0.48708379239500044,5.869495755285,3.08673183051395
000001656,CCN(N(N=O)O)CCNCC,C6H16N4O2,"InChI=1S/C6H16N4O2/c1-3-7-5-6-9(4-2)10(12)8-11/h7,12H,3-6H2,1-2H3",176.21684,-5.755207938075,-0.3945650832250003,5.36064285485,5.75014750703745
000001657,OCC(CF)O,C3H7FO2,"InChI=1S/C3H7FO2/c4-1-3(6)2-5/h3,5-6H,1-2H2",94.0848832,-7.028700758415,1.717038396655,8.74573915507,1.0664460420129092
000001658,CCCCCCCCC(CCCCCCCCC=CC(C#C)O)C,C23H42O,"InChI=1S/C23H42O/c1-4-6-7-8-13-16-19-22(3)20-17-14-11-9-10-12-15-18-21-23(24)5-2/h2,18,21-24H,4,6-17,19-20H2,1,3H3",334.57898,-6.680395029775,0.26667157349000004,6.947066603265,1.9284503895991205
000001659,CCCCC(CCCCCCCCCCC=CC(C#C)O)C,C21H38O,"InChI=1S/C21H38O/c1-4-6-17-20(3)18-15-13-11-9-7-8-10-12-14-16-19-21(22)5-2/h2,16,19-22H,4,6-15,17-18H2,1,3H3",306.52582,-6.680395029775,0.26667157349000004,6.947066603265,1.9246315700795829
000001660,C#CC(C=CCCCCCCCCCCCCCC(C)C)O,C21H38O,"InChI=1S/C21H38O/c1-4-21(22)19-17-15-13-11-9-7-5-6-8-10-12-14-16-18-20(2)3/h1,17,19-22H,5-16,18H2,2-3H3",306.52582,-6.680395029775,0.26667157349000004,6.947066603265,1.8879553693882702
000001661,C#CC(C=CCCCCCCCCCC=CCCCCC(C)C)O,C23H40O,"InChI=1S/C23H40O/c1-4-23(24)21-19-17-15-13-11-9-7-5-6-8-10-12-14-16-18-20-22(2)3/h1,10,12,19,21-24H,5-9,11,13-18,20H2,2-3H3",332.5631,-6.2803876695400005,0.26395043498500037,6.544338104525001,1.8859794031083692
000001662,OC(=O)CC(CC(=O)O)(O)C,C6H10O5,"InChI=1S/C6H10O5/c1-6(11,2-4(7)8)3-5(9)10/h11H,2-3H2,1H3,(H,7,8)(H,9,10)",162.1406,-7.32530485546,-0.44626671482000013,6.87903814064,5.804505299054262
000001663,NNCc1cccc(c1)O,C7H10N2O,"InChI=1S/C7H10N2O/c8-9-5-6-2-1-3-7(10)4-6/h1-4,9-10H,5,8H2",138.1671,-5.91575510987,-0.11700895571499981,5.798746154155,1.4883897293632473
000001664,CCCCCCC=CCCCCCCCCCC=CC(C#C)O,C22H38O,"InChI=1S/C22H38O/c1-3-5-6-7-8-9-10-11-12-13-14-15-16-17-18-19-20-21-22(23)4-2/h2,9-10,20-23H,3,5-8,11-19H2,1H3",318.53652,-6.277666531035,0.26395043498500037,6.54161696602,1.915263044610322
000001665,CCCCCCCCCCCCCCCC=CC(C#C)O,C20H36O,"InChI=1S/C20H36O/c1-3-5-6-7-8-9-10-11-12-13-14-15-16-17-18-19-20(21)4-2/h2,18-21H,3,5-17H2,1H3",292.49924,-6.680395029775,0.26667157349000004,6.947066603265,1.920305290224708
000001666,CCCCCCCCCCCCCCCCC=CC(C#C)O,C21H38O,"InChI=1S/C21H38O/c1-3-5-6-7-8-9-10-11-12-13-14-15-16-17-18-19-20-21(22)4-2/h2,19-22H,3,5-18H2,1H3",306.52582,-6.680395029775,0.26667157349000004,6.947066603265,1.9352784070799736
000001667,OCCCc1n(C)c2c(c1CO)C(=O)C(=CC2=O)N1CC1,C15H18N2O4,"InChI=1S/C15H18N2O4/c1-16-10(3-2-6-18)9(8-19)13-14(16)12(20)7-11(15(13)21)17-4-5-17/h7,18-19H,2-6,8H2,1H3",290.31442,-5.8776591708,-2.71569622799,3.1619629428100002,2.3374397689739514
000001669,NCCc1ccc(c(c1)OC)O,C9H13NO2,"InChI=1S/C9H13NO2/c1-12-9-6-7(4-5-10)2-3-8(9)11/h2-3,6,11H,4-5,10H2,1H3",167.20502,-5.330710331295,0.3156520665800002,5.646362397875,1.8124101687766487
000001670,COc1cc(ccc1O)CC(C(=O)O)N,C10H13NO4,"InChI=1S/C10H13NO4/c1-15-9-5-6(2-3-8(9)12)4-7(11)10(13)14/h2-3,5,7,12H,4,11H2,1H3,(H,13,14)",211.21452,-5.8477266472450005,-0.2966040970449999,5.551122550200001,5.4207198671757615
000001671,COc1ccc2c(c1)C13CCCCC3C(C2)NCC1,C17H23NO,"InChI=1S/C17H23NO/c1-19-13-6-5-12-10-16-14-4-2-3-7-17(14,8-9-18-16)15(12)11-13/h5-6,11,14,16,18H,2-4,7-10H2,1H3",257.37062,-5.40418107093,0.016326831029999767,5.42050790196,2.111530696194114
000001672,COCCCN,C4H11NO,"InChI=1S/C4H11NO/c1-6-4-2-3-5/h2-5H2,1H3",89.13624,-6.092629112695,2.4109287154300008,8.503557828125,2.0881805532307305
000001673,Nc1ncn(c2c1ncn2)C,C6H7N5,"InChI=1S/C6H7N5/c1-11-3-10-5(7)4-6(11)9-2-8-4/h2-3H,7H2,1H3",149.15328,-5.72527541452,-1.2136277732299998,4.511647641290001,3.909126873589037
000001674,Cc1ccc2c3c1CCc3c1c(c2)c2ccccc2cc1,C21H16,"InChI=1S/C21H16/c1-13-6-7-15-12-20-17-5-3-2-4-14(17)8-9-18(20)19-11-10-16(13)21(15)19/h2-9,12H,10-11H2,1H3",268.35174,-5.080365588835,-1.3007042053899998,3.779661383445,1.0948038362099395
000001675,OCC1OC(CC1O)n1cc(C)c(=O)n(c1=O)C,C11H16N2O5,"InChI=1S/C11H16N2O5/c1-6-4-13(11(17)12(2)10(6)16)9-3-7(15)8(5-14)18-9/h4,7-9,14-15H,3,5H2,1-2H3",256.25514,-6.3021567775800005,-1.15376272612,5.14839405146,2.1858488558518863
000001676,CCCn1c(=O)[nH]c(=O)c2c1nc[nH]2,C8H10N4O2,"InChI=1S/C8H10N4O2/c1-2-3-12-6-5(9-4-10-6)7(13)11-8(12)14/h4H,2-3H2,1H3,(H,9,10)(H,11,13,14)",194.1906,-6.043648619605,-1.1510415876150004,4.89260703199,3.868645338781264
000001678,[O-][N+](=O)CCC(=O)O,C3H5NO4,"InChI=1S/C3H5NO4/c5-3(6)1-2-4(7)8/h1-2H2,(H,5,6)",119.0761,-8.02191631274,-2.0599018482849996,5.962014464455001,2.899098297944552
000001679,O=Nc1cccc(c1)C(=O)N,C7H6N2O2,"InChI=1S/C7H6N2O2/c8-7(10)5-2-1-3-6(4-5)9-11/h1-4H,(H2,8,10)",150.13474,-5.940245356415,-2.767397859585,3.17284749683,2.748008913082161
000001680,COc1cc2OCC3C(c2cc1CC=C(C)C)Oc1c3ccc(c1)O,C21H22O4,"InChI=1S/C21H22O4/c1-12(2)4-5-13-8-16-19(10-18(13)23-3)24-11-17-15-7-6-14(22)9-20(15)25-21(16)17/h4,6-10,17,21-22H,5,11H2,1-3H3",338.39698,-5.36064285485,-0.016326831029999767,5.34431602382,1.2946418716946397
000001681,NCC#Cc1ccccc1,C9H9N,"InChI=1S/C9H9N/c10-8-4-7-9-5-2-1-3-6-9/h1-3,5-6H,8,10H2",131.17446,-5.940245356415,-0.7319862578449996,5.20825909857,1.3561379783849428
000001682,OC(=O)CCP(=O)(O)O,C3H7O5P,"InChI=1S/C3H7O5P/c4-3(5)1-2-9(6,7)8/h1-2H2,(H,4,5)(H2,6,7,8)",154.058441,-7.23278614629,0.04898049309000019,7.28176663938,4.5128189695291345
000001683,CN1C2CCC1CC(C2)OC(=O)c1cc(Cl)cc(c1)Cl,C15H17Cl2NO2,"InChI=1S/C15H17Cl2NO2/c1-18-12-2-3-13(18)8-14(7-12)20-15(19)9-4-10(16)6-11(17)5-9/h4-6,12-14H,2-3,7-8H2,1H3",314.20698,-5.918476248375,-1.7360863661900003,4.182389882184999,2.433239375936737
000001684,Cc1noc(c1)CCCOc1c(C)cc(cc1C)c1noc(n1)C(F)(F)F,C18H18F3N3O3,"InChI=1S/C18H18F3N3O3/c1-10-7-13(16-22-17(27-24-16)18(19,20)21)8-11(2)15(10)25-6-4-5-14-9-12(3)23-26-14/h7-9H,4-6H2,1-3H3",381.3490296,-6.51440558097,-1.961940862105,4.552464718865,1.8335128345389349
000001685,OCC1OC(Oc2ccc(cc2)N)C(C(C1O)O)O,C12H17NO6,"InChI=1S/C12H17NO6/c13-6-1-3-7(4-2-6)18-12-11(17)10(16)9(15)8(5-14)19-12/h1-4,8-12,14-17H,5,13H2",271.26648,-5.48581522608,-0.32653662059999977,5.15927860548,3.608780426246795
000001687,Clc1ccc(cc1)C(c1ccccc1)OC1CC2CCC(C1)N2C,C21H24ClNO,"InChI=1S/C21H24ClNO/c1-23-18-11-12-19(23)14-20(13-18)24-21(15-5-3-2-4-6-15)16-7-9-17(22)10-8-16/h2-10,18-21H,11-14H2,1H3",341.87436,-5.752486799570001,-0.37007483667999974,5.382411962890001,2.4104719014184757
000001688,Clc1ccc(cc1)C1=NCC(=O)N(c2c1cc(Cl)cc2)C,C16H12Cl2N2O,"InChI=1S/C16H12Cl2N2O/c1-20-14-7-6-12(18)8-13(14)16(19-9-15(20)21)10-2-4-11(17)5-3-10/h2-8H,9H2,1H3",319.18528,-6.307599054590001,-1.7224806736649994,4.585118380925001,3.172652410807241
000001689,COc1cc(cc(c1O)OC)C1C2C(=O)OCC2Cc2c1cc1OCOc1c2,C21H20O7,"InChI=1S/C21H20O7/c1-24-16-5-11(6-17(25-2)20(16)22)18-13-7-15-14(27-9-28-15)4-10(13)3-12-8-26-21(23)19(12)18/h4-7,12,18-19,22H,3,8-9H2,1-2H3",384.3793,-5.216422514085,-0.22585449591499973,4.99056801817,1.8292248762166996
000001692,COC1C(N)CC2OC1(C)n1c3c(c4c1c(O)ccc4)c1CNC(=O)c1c1c3n2c2ccccc12,C27H24N4O4,"InChI=1S/C27H24N4O4/c1-27-25(34-2)15(28)10-18(35-27)30-16-8-4-3-6-12(16)20-21-14(11-29-26(21)33)19-13-7-5-9-17(32)22(13)31(27)24(19)23(20)30/h3-9,15,18,25,32H,10-11,28H2,1-2H3,(H,29,33)",468.50386,-5.053154203785001,-1.0285903548899995,4.024563848895001,8.573630214773903
000001693,CCCCCC(C=CC=O)O,C9H16O2,"InChI=1S/C9H16O2/c1-2-3-4-6-9(11)7-5-8-10/h5,7-9,11H,2-4,6H2,1H3",156.22214,-6.813730816520001,-1.5102318702749997,5.303498946245001,3.9368845433488397
000001695,O=c1[nH]oc2c1CNCC2,C6H8N2O2,"InChI=1S/C6H8N2O2/c9-6-4-3-7-2-1-5(4)10-8-6/h7H,1-3H2,(H,8,9)",140.13992,-6.234128314955,-0.7102171498049996,5.52391116515,3.8298497744180517
000001697,O=C1NC(=O)c2c1cc(Nc1ccccc1)c(c2)Nc1ccccc1,C20H15N3O2,"InChI=1S/C20H15N3O2/c24-19-15-11-17(21-13-7-3-1-4-8-13)18(12-16(15)20(25)23-19)22-14-9-5-2-6-10-14/h1-12,21-22H,(H,23,24,25)",329.352,-5.6463623978749995,-1.9075180920049997,3.73884430587,4.688088406003667
000001698,O=C(CCC(=O)O)CCC(=O)CCC(=O)O,C10H14O6,"InChI=1S/C10H14O6/c11-7(3-5-9(13)14)1-2-8(12)4-6-10(15)16/h1-6H2,(H,13,14)(H,15,16)",230.21456,-7.14026743712,-1.6109139949600007,5.52935344216,1.8801232565919712
000001699,NCC(C(C1OC(=CC(C1NC(=O)C)N)C(=O)O)O)O,C11H19N3O6,"InChI=1S/C11H19N3O6/c1-4(15)14-8-5(13)2-7(11(18)19)20-10(8)9(17)6(16)3-12/h2,5-6,8-10,16-17H,3,12-13H2,1H3,(H,14,15)(H,18,19)",289.28506,-6.397396625255,-0.7483130888750003,5.64908353638,6.069249739865217
000001700,O=C(c1ccc(cc1)S(=O)(=O)N)NCc1cccc(c1F)F,C14H12F2N2O3S,"InChI=1S/C14H12F2N2O3S/c15-12-3-1-2-10(13(12)16)8-18-14(19)9-4-6-11(7-5-9)22(17,20)21/h1-7H,8H2,(H,18,19)(H2,17,20,21)",326.3184864,-6.710327553330001,-1.5483278093449995,5.161999743985001,2.496678903032987
000001701,NCCc1ccc(cc1)S(=O)(=O)F,C8H10FNO2S,"InChI=1S/C8H10FNO2S/c9-13(11,12)8-3-1-7(2-4-8)5-6-10/h1-4H,5-6,10H2",203.2339032,-6.69944299931,-1.6626156265549996,5.036827372755001,6.313813992467311
000001702,Nc1ccccc1SCCCCP(=O)(O)O,C10H16NO3PS,"InChI=1S/C10H16NO3PS/c11-9-5-1-2-6-10(9)16-8-4-3-7-15(12,13)14/h1-2,5-6H,3-4,7-8,11H2,(H2,12,13,14)",261.277701,-5.50758433412,-0.2557870194699996,5.25179731465,2.621768118320917
000001703,Oc1ccc(cc1SCCC=CP(=O)(O)O)F,C10H12FO4PS,"InChI=1S/C10H12FO4PS/c11-8-3-4-9(12)10(7-8)17-6-2-1-5-16(13,14)15/h1,3-5,7,12H,2,6H2,(H2,13,14,15)",278.2370442,-5.861332339770001,-0.8816488756199998,4.979683464150001,4.436941408352042
000001704,O=S(c1ccccc1O)CCCCP(=O)(O)O,C10H15O5PS,"InChI=1S/C10H15O5PS/c11-9-5-1-2-6-10(9)17(15)8-4-3-7-16(12,13)14/h1-2,5-6,11H,3-4,7-8H2,(H2,12,13,14)",278.261861,-5.853168924255001,-0.6530732412000004,5.200095683055,4.120119496040497
000001705,Oc1ccccc1SCCC=CP(=O)(O)O,C10H13O4PS,"InChI=1S/C10H13O4PS/c11-9-5-1-2-6-10(9)16-8-4-3-7-15(12,13)14/h1-3,5-7,11H,4,8H2,(H2,12,13,14)",260.246581,-6.098071389705,-0.8789277371150002,5.21914365259,0.6486108042678598
000001706,NC1CCC(=C2C=NC(=N2)N)CC1,C9H14N4,"InChI=1S/C9H14N4/c10-7-3-1-6(2-4-7)8-5-12-9(11)13-8/h5,7H,1-4,10H2,(H2,11,13)",178.23426,-5.66541036741,-1.7442497817050002,3.9211605857049996,1.304258559610402
000001708,CCC(C(=O)Nc1cc(ccc1NC(=O)C)C(=O)O)CC,C15H20N2O4,"InChI=1S/C15H20N2O4/c1-4-10(5-2)14(19)17-13-8-11(15(20)21)6-7-12(13)16-9(3)18/h6-8,10H,4-5H2,1-3H3,(H,16,18)(H,17,19)(H,20,21)",292.3303,-6.212359206915,-1.3333578674500002,4.879001339465,8.48396411966122
000001711,O=C(c1ccc2c(c1)C(CCC2(C)C)c1cnc2c(c1)cccc2)Nc1ccc(cc1)C(=O)O,C29H26N2O3,"InChI=1S/C29H26N2O3/c1-29(2)14-13-23(21-15-19-5-3-4-6-26(19)30-17-21)24-16-20(9-12-25(24)29)27(32)31-22-10-7-18(8-11-22)28(33)34/h3-12,15-17,23H,13-14H2,1-2H3,(H,31,32)(H,33,34)",450.52834,-6.29127222356,-1.608192856455,4.683079367105,9.2451026685893
000001712,O=C1N=c2c(=C1CNc1ccc(cc1)S(=O)(=O)Nc1ccccn1)c1scnc1cc2,C21H15N5O3S2,"InChI=1S/C21H15N5O3S2/c27-21-15(19-16(25-21)8-9-17-20(19)30-12-24-17)11-23-13-4-6-14(7-5-13)31(28,29)26-18-3-1-2-10-22-18/h1-10,12,23H,11H2,(H,22,26)",449.5055,-5.866774616780001,-3.8231995995250005,2.0435750172550002,2.558893246009884
000001713,COc1ccc2c(c1)c(ncn2)NCc1ccc2c(c1)OCO2,C17H15N3O3,"InChI=1S/C17H15N3O3/c1-21-12-3-4-14-13(7-12)17(20-9-19-14)18-8-11-2-5-15-16(6-11)23-10-22-15/h2-7,9H,8,10H2,1H3,(H,18,19,20)",309.3193,-5.466767256545,-1.0122635238599997,4.4545037326850005,6.151602735336621
000001714,COc1cc2c(ncnc2cc1OC)Nc1cccc(c1)SC,C17H17N3O2S,"InChI=1S/C17H17N3O2S/c1-21-15-8-13-14(9-16(15)22-2)18-10-19-17(13)20-11-5-4-6-12(7-11)23-3/h4-10H,1-3H3,(H,18,19,20)",327.40078,-5.341594885315001,-1.1510415876149995,4.190553297700001,4.913616661293491
000001715,COc1ccc2c(c1)CN(CCS2)C(=O)CCN1CCC(CC1)Cc1ccccc1,C25H32N2O2S,"InChI=1S/C25H32N2O2S/c1-29-23-7-8-24-22(18-23)19-27(15-16-30-24)25(28)11-14-26-12-9-21(10-13-26)17-20-5-3-2-4-6-20/h2-8,18,21H,9-17,19H2,1H3",424.59878,-5.53479571917,-0.22313335741000007,5.31166236176,2.772454895576842
000001716,OC(=O)CCC(C(=O)O)NC(=O)c1ccc(cc1)S(=O)(=O)N1CCCC1C(=O)O,C17H20N2O9S,"InChI=1S/C17H20N2O9S/c20-14(21)8-7-12(16(23)24)18-15(22)10-3-5-11(6-4-10)29(27,28)19-9-1-2-13(19)17(25)26/h3-6,12-13H,1-2,7-9H2,(H,18,22)(H,20,21)(H,23,24)(H,25,26)",428.4137,-6.824615370540001,-1.8585375989150004,4.966077771625001,7.687924096984374
000001718,CC(=O)Nc1ccc(cc1)OC(=O)c1ccc(cc1)N=C(N)N,C16H16N4O3,"InChI=1S/C16H16N4O3/c1-10(21)19-12-6-8-14(9-7-12)23-15(22)11-2-4-13(5-3-11)20-16(17)18/h2-9H,1H3,(H,19,21)(H4,17,18,20)",312.32324,-5.43683473299,-1.1700895571499998,4.266745175840001,3.894489947772622
000001719,NC(=N)c1ccc(cc1)CS(=O)(=O)F,C8H9FN2O2S,"InChI=1S/C8H9FN2O2S/c9-14(12,13)5-6-1-3-7(4-2-6)8(10)11/h1-4H,5H2,(H3,10,11)",216.2326632,-6.574270628080001,-1.0911765405049998,5.483094087575001,4.603241060816716
000001720,Nc1ccc2c3c1cccc3c(=O)[nH]c2=O,C12H8N2O2,"InChI=1S/C12H8N2O2/c13-9-5-4-8-10-6(9)2-1-3-7(10)11(15)14-12(8)16/h1-5H,13H2,(H,14,15,16)",212.20412,-5.722554276015,-2.103440064365,3.61911421165,7.657774300127224
000001721,OCC(C(C1OC(=CC(C1NC(=O)C)N)C(=O)O)O)O,C11H18N2O7,"InChI=1S/C11H18N2O7/c1-4(15)13-8-5(12)2-7(11(18)19)20-10(8)9(17)6(16)3-14/h2,5-6,8-10,14,16-17H,3,12H2,1H3,(H,13,15)(H,18,19)",290.26982,-6.25317628449,-0.7074960113,5.54568027319,5.646270821775643
000001722,Nc1nc(ncc1COP(=O)(OP(=O)(O)O)O)C(F)(F)F,C6H8F3N3O7P2,"InChI=1S/C6H8F3N3O7P2/c7-6(8,9)5-11-1-3(4(10)12-5)2-18-21(16,17)19-20(13,14)15/h1H,2H2,(H,16,17)(H2,10,11,12)(H2,13,14,15)",353.0863516,-7.077681251505,-1.847653044895,5.23002820661,5.0666103806962495
000001723,Cc1nc2cccc(c2c(c1CSCc1cccc(c1)C(C(F)(F)F)(O)O)N)F,C20H18F4N2O2S,"InChI=1S/C20H18F4N2O2S/c1-11-14(18(25)17-15(21)6-3-7-16(17)26-11)10-29-9-12-4-2-5-13(8-12)19(27,28)20(22,23)24/h2-8,27-28H,9-10H2,1H3,(H2,25,26)",426.4277328,-5.466767256545,-1.0122635238599997,4.4545037326850005,5.444072745892545
000001725,Nc1ccc(cc1)C(=N)N,C7H9N3,"InChI=1S/C7H9N3/c8-6-3-1-5(2-4-6)7(9)10/h1-4H,8H2,(H3,9,10)",135.16646,-5.439555871495,-0.046259354584999635,5.3932965169100004,4.506571962985945
000001726,NCCCCP(=O)(O)O,C4H12NO3P,"InChI=1S/C4H12NO3P/c5-3-1-2-4-9(6,7)8/h1-5H2,(H2,6,7,8)",153.116741,-6.315762470105001,0.9170236761849999,7.2327861462900005,2.809755986187057
000001727,Nc1ccncc1,C5H6N2,"InChI=1S/C5H6N2/c6-5-1-3-7-4-2-5/h1-4H,(H2,6,7)",94.11454,-5.994668126515,-0.06530732411999995,5.929360802395,3.9800385987683584
000001729,COC1=C2CCC3C(C2(CCC1=O)C)CCC1(C3CCC1=O)C,C20H28O3,"InChI=1S/C20H28O3/c1-19-11-9-16(21)18(23-3)15(19)5-4-12-13-6-7-17(22)20(13,2)10-8-14(12)19/h12-14H,4-11H2,1-3H3",316.43452,-6.024600650070001,-1.2462814352900002,4.778319214780001,1.950771590732754
000001731,Oc1ccc(c(c1)O)Cl,C6H5ClO2,"InChI=1S/C6H5ClO2/c7-5-2-1-4(8)3-6(5)9/h1-3,8-9H",144.5557,-5.81235184668,-0.17687400282500043,5.635477843855,1.0786436760348617
000001732,Oc1ccc(c(c1)C)Cl,C7H7ClO,"InChI=1S/C7H7ClO/c1-5-4-6(9)2-3-7(5)8/h2-4,9H,1H3",142.58288,-5.85589006276,-0.23129677292499995,5.624593289835,1.9560454168860701
000001733,N#Cc1c(C)ncc2c1cccc2,C11H8N2,"InChI=1S/C11H8N2/c1-8-11(6-12)10-5-3-2-4-9(10)7-13-8/h2-5,7H,1H3",168.19462,-6.5688283510700005,-2.136093726425,4.432734624645001,3.935969376825739
000001735,OCC1=CC(NC2C(C)OC(C(C2O)O)O)C(C(C1O)O)O,C13H23NO8,"InChI=1S/C13H23NO8/c1-4-7(10(18)12(20)13(21)22-4)14-6-2-5(3-15)8(16)11(19)9(6)17/h2,4,6-21H,3H2,1H3",321.32362,-6.092629112695,0.06258618561500029,6.15521529831,1.6622620733208706
000001737,OC(=O)C(CC(C(C(=O)O)O)O)O,C6H10O7,"InChI=1S/C6H10O7/c7-2(4(9)6(12)13)1-3(8)5(10)11/h2-4,7-9H,1H2,(H,10,11)(H,12,13)",194.1394,-7.0885658055250005,-0.7347073963500002,6.353858409175,4.708100376145882
000001738,COc1cc(ccc1O)CC(=O)O,C9H10O4,"InChI=1S/C9H10O4/c1-13-8-4-6(5-9(11)12)2-3-7(8)10/h2-4,10H,5H2,1H3,(H,11,12)",182.1733,-5.8776591708,-0.32109434359000044,5.55656482721,3.6296521513434317
000001741,OC(=O)C=C(C(C(=O)O)O)C(=O)O,C6H6O7,"InChI=1S/C6H6O7/c7-3(8)1-2(5(10)11)4(9)6(12)13/h1,4,9H,(H,7,8)(H,10,11)(H,12,13)",190.10764,-7.801504093835001,-2.429976684965,5.3715274088700005,2.6209071718206656
000001742,NNC(=O)c1ccc(cc1)O,C7H8N2O2,"InChI=1S/C7H8N2O2/c8-9-7(11)5-1-3-6(10)4-2-5/h1-4,10H,8H2,(H,9,11)",152.15062,-6.24773400748,-0.6367464101699998,5.61098759731,3.6287627843610832
000001743,OC1CCC2C1(C)CCC1C2CCc2c1ccc(c2O)O,C18H24O3,"InChI=1S/C18H24O3/c1-18-9-8-11-10-4-6-15(19)17(21)13(10)3-2-12(11)14(18)5-7-16(18)20/h4,6,11-12,14,16,19-21H,2-3,5,7-9H2,1H3",288.38136,-5.43683473299,0.2748349890049999,5.711669721995,2.4929367734830343
000001744,O=C(Nc1ccc(cc1)O)C=C(C=CC=C(C=CC1=C(C)CCCC1(C)C)C)C,C26H33NO2,"InChI=1S/C26H33NO2/c1-19(11-16-24-21(3)10-7-17-26(24,4)5)8-6-9-20(2)18-25(29)27-22-12-14-23(28)15-13-22/h6,8-9,11-16,18,28H,7,10,17H2,1-5H3,(H,27,29)",391.54572,-5.14295177445,-1.3333578674500002,3.809593907,2.8427004612575697
000001745,OCc1cnc[nH]1,C4H6N2O,"InChI=1S/C4H6N2O/c7-2-4-1-5-3-6-4/h1,3,7H,2H2,(H,5,6)",98.10324,-6.03548520409,0.27211385050000025,6.307599054590001,2.1788376399268485
000001748,NCCc1ccc(c(c1)O)OC,C9H13NO2,"InChI=1S/C9H13NO2/c1-12-9-3-2-7(4-5-10)6-8(9)11/h2-3,6,11H,4-5,10H2,1H3",167.20502,-5.385133101395,0.3020463740550001,5.68717947545,3.4839020628373008
000001749,CC(CC(C(=O)NC1Cc2cn(c3c2cccc3)CCCCCCNC1=O)CS(=N)(=N)C)C,C25H39N5O2S,"InChI=1S/C25H39N5O2S/c1-18(2)14-20(17-33(3,26)27)24(31)29-22-15-19-16-30(23-11-7-6-10-21(19)23)13-9-5-4-8-12-28-25(22)32/h6-7,10-11,16,18,20,22,26-27H,4-5,8-9,12-15,17H2,1-3H3,(H,28,32)(H,29,31)",473.67446,-5.483094087575,-0.3782382521949996,5.10485583538,2.3857644941707887
000001750,O=C1C=Cc2c1cccc2[N+](=O)[O-],C9H5NO3,InChI=1S/C9H5NO3/c11-9-5-4-6-7(9)2-1-3-8(6)10(12)13/h1-5H,175.1409,-7.0531910049599995,-3.0857710646700003,3.9674199402899992,1.83316833486535
000001752,CCCCCCCCCc1ccc(cc1)O,C15H24O,"InChI=1S/C15H24O/c1-2-3-4-5-6-7-8-9-14-10-12-15(16)13-11-14/h10-13,16H,2-9H2,1H3",220.35046,-5.640920120865,0.05170163159499985,5.69262175246,1.3598793079906024
000001753,OCC(C(C1OC(OC)(CC(C1NC(=O)C)OC(=O)C)C(=O)O)O)O,C14H23NO10,"InChI=1S/C14H23NO10/c1-6(17)15-10-9(24-7(2)18)4-14(23-3,13(21)22)25-12(10)11(20)8(19)5-16/h8-12,16,19-20H,4-5H2,1-3H3,(H,15,17)(H,21,22)",365.33312,-6.468146226385,-0.4680358228600001,6.0001104035249995,7.076967492230411
000001754,CCCCCCCCCCOCCC(=O)O,C13H26O3,"InChI=1S/C13H26O3/c1-2-3-4-5-6-7-8-9-11-16-12-10-13(14)15/h2-12H2,1H3,(H,14,15)",230.34374,-7.00421051187,0.14149920226000035,7.145709714130001,3.58512326770796