mol_id,SMILES,formula,inchi,mass,HOMO(eV),LUMO(eV),GAP(eV),dipole_moment
000003368,OC1C(O)C(OC1n1cnc2c1nc(F)nc2N)COP(=O)(O)O,C10H13FN5O7P,"InChI=1S/C10H13FN5O7P/c11-10-14-7(12)4-8(15-10)16(2-13-4)9-6(18)5(17)3(23-9)1-22-24(19,20)21/h2-3,5-6,9,17-18H,1H2,(H2,12,14,15)(H2,19,20,21)",365.2116842,-6.08446569718,-0.851716352065,5.232749345115,3.2402039709225097
000003369,Clc1ccc2c(c1)C(=NCC(=O)N2C)c1ccccc1F,C16H12ClFN2O,"InChI=1S/C16H12ClFN2O/c1-20-14-7-6-10(17)8-12(14)16(19-9-15(20)21)11-4-2-3-5-13(11)18/h2-8H,9H2,1H3",302.7306832,-6.190590098875,-1.5782603329000002,4.612329765975,2.5843329256057546
000003370,CC(=O)OCC(=O)C1(O)CCC2C1(C)CC(O)C1(C2CCC2=CC(=O)CCC12C)F,C23H31FO6,"InChI=1S/C23H31FO6/c1-13(25)30-12-19(28)22(29)9-7-16-17-5-4-14-10-15(26)6-8-20(14,2)23(17,24)18(27)11-21(16,22)3/h10,16-18,27,29H,4-9,11-12H2,1-3H3",422.4870432,-6.174263267845,-1.1864163881800005,4.987846879665,5.1695461193635746
000003371,OC(=O)c1ccccc1Nc1cccc(c1)C(F)(F)F,C14H10F3NO2,"InChI=1S/C14H10F3NO2/c15-14(16,17)9-4-3-5-10(8-9)18-12-7-2-1-6-11(12)13(19)20/h1-8,18H,(H,19,20)",281.2299096,-5.79602501565,-1.5646546403750001,4.231370375275,5.952828786245914
000003372,OCCN1CCN(CC1)CCCN1c2ccccc2Sc2c1cc(cc2)C(F)(F)F,C22H26F3N3OS,"InChI=1S/C22H26F3N3OS/c23-22(24,25)17-6-7-21-19(16-17)28(18-4-1-2-5-20(18)30-21)9-3-8-26-10-12-27(13-11-26)14-15-29/h1-2,4-7,16,29H,3,8-15H2",437.5215496,-5.031385095745001,-0.8843700141250004,4.14701508162,4.905512038753956
000003373,CCOC(=O)c1ncn2c1CN(C)C(=O)c1c2ccc(c1)F,C15H14FN3O3,"InChI=1S/C15H14FN3O3/c1-3-22-15(21)13-12-7-18(2)14(20)10-6-9(16)4-5-11(10)19(12)8-17-13/h4-6,8H,3,7H2,1-2H3",303.2883632,-6.51984785798,-1.4367611306399999,5.08308672734,2.3975326177097154
000003374,Fc1cc2CCC(n3c2c(c1)c(=O)c(c3)C(=O)O)C,C14H12FNO3,"InChI=1S/C14H12FNO3/c1-7-2-3-8-4-9(15)5-10-12(8)16(7)6-11(13(10)17)14(18)19/h4-7H,2-3H2,1H3,(H,18,19)",261.2483832,-6.255897422995,-1.8095571058250002,4.44634031717,9.47371148156587
000003375,OCC(=O)C1(O)C(C)CC2C1(C)CC(O)C1(C2CC(C2=CC(=O)C=CC12C)F)F,C22H28F2O5,"InChI=1S/C22H28F2O5/c1-11-6-13-14-8-16(23)15-7-12(26)4-5-19(15,2)21(14,24)17(27)9-20(13,3)22(11,29)18(28)10-25/h4-5,7,11,13-14,16-17,25,27,29H,6,8-10H2,1-3H3",410.4515264,-6.39467548675,-1.6109139949600007,4.783761491789999,6.726543931501377
000003376,O=C1C=CC2(C(=C1)C(F)CC1C2(F)C(O)CC2(C1CC(C2(O)C(=O)COC(=O)C(C)(C)C)C)C)C,C27H36F2O6,"InChI=1S/C27H36F2O6/c1-14-9-16-17-11-19(28)18-10-15(30)7-8-24(18,5)26(17,29)20(31)12-25(16,6)27(14,34)21(32)13-35-22(33)23(2,3)4/h7-8,10,14,16-17,19-20,31,34H,9,11-13H2,1-6H3",494.5679464,-6.27494539253,-1.8013936903100003,4.47355170222,10.303307735032668
000003378,Fc1ccc(cc1)C(c1ccc(cc1)F)N1CCN(CC1)CC=Cc1ccccc1,C26H26F2N2,"InChI=1S/C26H26F2N2/c27-24-12-8-22(9-13-24)26(23-10-14-25(28)15-11-23)30-19-17-29(18-20-30)16-4-7-21-5-2-1-3-6-21/h1-15,26H,16-20H2",404.4948464,-5.564728242725,-0.6095350251199996,4.955193217605,0.7272404084853922
000003379,OCC(=O)C12OC(OC1CC1C2(C)CC(O)C2C1CC(C1=CC(=O)C=CC21C)F)(C)C,C24H31FO6,"InChI=1S/C24H31FO6/c1-21(2)30-19-9-14-13-8-16(25)15-7-12(27)5-6-22(15,3)20(13)17(28)10-23(14,4)24(19,31-21)18(29)11-26/h5-7,13-14,16-17,19-20,26,28H,8-11H2,1-4H3",434.4977432,-6.2803876695400005,-1.3660115295099997,4.914376140030001,7.52397032354707
000003380,CN1C(=O)CN=C(c2c1ccc(c2)[N+](=O)[O-])c1ccccc1F,C16H12FN3O3,"InChI=1S/C16H12FN3O3/c1-19-14-7-6-10(20(22)23)8-12(14)16(18-9-15(19)21)11-4-2-3-5-13(11)17/h2-8H,9H2,1H3",313.2831832,-6.6940007223,-2.4871205935699994,4.206880128730001,1.2547888437510113
000003381,OCC(=O)C12OC(OC1CC1C2(C)CC(O)C2(C1CC(C1=CC(=O)C=CC21C)F)F)(C)C,C24H30F2O6,"InChI=1S/C24H30F2O6/c1-20(2)31-19-9-13-14-8-16(25)15-7-12(28)5-6-21(15,3)23(14,26)17(29)10-22(13,4)24(19,32-20)18(30)11-27/h5-7,13-14,16-17,19,27,29H,8-11H2,1-4H3",452.4882064,-6.315762470105001,-1.44220340765,4.8735590624550005,8.081045634174949
000003383,Oc1ccc2c(c1)oc1c(c2c2ccccc2C(=O)O)ccc(=O)c1,C20H12O5,"InChI=1S/C20H12O5/c21-11-5-7-15-17(9-11)25-18-10-12(22)6-8-16(18)19(15)13-3-1-2-4-14(13)20(23)24/h1-10,21H,(H,23,24)",332.30628,-5.74160224555,-2.54698564068,3.19461660487,7.825401613486748
000003384,O=C1C=CC2(C(=C1)C(C)CC1C2(F)C(O)CC2(C1CCC2(O)C(=O)C)C)C,C22H29FO4,"InChI=1S/C22H29FO4/c1-12-9-17-15-6-8-21(27,13(2)24)20(15,4)11-18(26)22(17,23)19(3)7-5-14(25)10-16(12)19/h5,7,10,12,15,17-18,26-27H,6,8-9,11H2,1-4H3",376.4616632,-5.727996553025,-2.2204490200800002,3.507547532945,3.843819496374537
000003385,Fc1c[nH]c(=O)[nH]c1=O,C4H3FN2O2,"InChI=1S/C4H3FN2O2/c5-2-1-6-4(9)7-3(2)8/h1H,(H2,6,7,8,9)",130.0772232,-6.68855844529,-1.4694147927000003,5.21914365259,3.761900289020962
000003386,CNCCC(c1ccccc1)Oc1ccc(cc1)C(F)(F)F,C17H18F3NO,"InChI=1S/C17H18F3NO/c1-21-12-11-16(13-5-3-2-4-6-13)22-15-9-7-14(8-10-15)17(18,19)20/h2-10,16,21H,11-12H2,1H3",309.3261296,-6.087186835685,-0.5687179475450002,5.51846888814,3.820316889778255
000003387,O=C1CCC2(C(=C1)CCC1C2(F)C(O)CC2(C1CCC2(C)O)C)C,C20H29FO3,"InChI=1S/C20H29FO3/c1-17-8-6-13(22)10-12(17)4-5-15-14-7-9-19(3,24)18(14,2)11-16(23)20(15,17)21/h10,14-16,23-24H,4-9,11H2,1-3H3",336.4408632,-6.12256163625,-1.1238302025650002,4.998731433685,5.405292097359957
000003390,OCC(=O)C1(O)CCC2C1(C)CC(O)C1C2CC(C2=CC(=O)C=CC12C)F,C21H27FO5,"InChI=1S/C21H27FO5/c1-19-5-3-11(24)7-14(19)15(22)8-12-13-4-6-21(27,17(26)10-23)20(13,2)9-16(25)18(12)19/h3,5,7,12-13,15-16,18,23,25,27H,4,6,8-10H2,1-2H3",378.4344832,-5.42050790196,-1.89391239948,3.5265955024799998,6.272172216030583
000003391,OC(=O)CCCC=CCC1C(O)CC(C1C=CC(COc1cccc(c1)C(F)(F)F)O)O,C23H29F3O6,"InChI=1S/C23H29F3O6/c24-23(25,26)15-6-5-7-17(12-15)32-14-16(27)10-11-19-18(20(28)13-21(19)29)8-3-1-2-4-9-22(30)31/h1,3,5-7,10-12,16,18-21,27-29H,2,4,8-9,13-14H2,(H,30,31)",458.4679696,-6.4028389022650005,-0.8217838285100001,5.581055073755,5.448687810960268
000003392,OCC(=O)C12OC(OC1CC1C2(C)CC(O)C2C1CC(C1=CC(=O)CCC21C)F)(C)C,C24H33FO6,"InChI=1S/C24H33FO6/c1-21(2)30-19-9-14-13-8-16(25)15-7-12(27)5-6-22(15,3)20(13)17(28)10-23(14,4)24(19,31-21)18(29)11-26/h7,13-14,16-17,19-20,26,28H,5-6,8-11H2,1-4H3",436.5136232,-6.277666531035,-1.1918586651899998,5.085807865845,6.6842442554315
000003393,CCN(CCN1C(=O)CN=C(c2c1ccc(c2)Cl)c1ccccc1F)CC,C21H23ClFN3O,"InChI=1S/C21H23ClFN3O/c1-3-25(4-2)11-12-26-19-10-9-15(22)13-17(19)21(24-14-20(26)27)16-7-5-6-8-18(16)23/h5-10,13H,3-4,11-12,14H2,1-2H3",387.8782232,-5.73615996854,-1.559212363365,4.176947605175,2.5793730822168786
000003394,OC(=O)C(c1ccc(c(c1)F)c1ccccc1)C,C15H13FO2,"InChI=1S/C15H13FO2/c1-10(15(17)18)12-7-8-13(14(16)9-12)11-5-3-2-4-6-11/h2-10H,1H3,(H,17,18)",244.2609232,-6.560664935555001,-0.8843700141250004,5.67629492143,3.7891690335140766
000003395,CC(=O)OC(OC(=O)C(c1ccc(c(c1)F)c1ccccc1)C)C,C19H19FO4,"InChI=1S/C19H19FO4/c1-12(19(22)24-14(3)23-13(2)21)16-9-10-17(18(20)11-16)15-7-5-4-6-8-15/h4-12,14H,1-3H3",330.3501632,-6.29671450057,-0.6775634877450001,5.619151012825,3.590686954060323
000003396,Fc1ccc(cc1)C(c1ccc(cc1)F)CCCN1CCC2(CC1)C(=O)NCN2c1ccccc1,C29H31F2N3O,"InChI=1S/C29H31F2N3O/c30-24-12-8-22(9-13-24)27(23-10-14-25(31)15-11-23)7-4-18-33-19-16-29(17-20-33)28(35)32-21-34(29)26-5-2-1-3-6-26/h1-3,5-6,8-15,27H,4,7,16-21H2,(H,32,35)",475.5727464,-5.532074580665,-0.37551711368999996,5.156557466975,4.691552214147148
000003397,O=C(C(C)C)Nc1ccc(c(c1)C(F)(F)F)[N+](=O)[O-],C11H11F3N2O3,"InChI=1S/C11H11F3N2O3/c1-6(2)10(17)15-7-3-4-9(16(18)19)8(5-7)11(12,13)14/h3-6H,1-2H3,(H,15,17)",276.2118496,-6.94434546476,-2.43814010048,4.5062053642799995,9.425422636720807
000003398,OCCN1C(=O)CN2C(c3c1ccc(c3)Cl)(OCC2)c1ccccc1F,C19H18ClFN2O3,"InChI=1S/C19H18ClFN2O3/c20-13-5-6-17-15(11-13)19(14-3-1-2-4-16(14)21)22(8-10-26-19)12-18(25)23(17)7-9-24/h1-6,11,24H,7-10,12H2",376.8092232,-5.978341295485,-0.8381106595399999,5.1402306359450005,1.9103147683607014
000003400,Clc1ccc2c(c1)C(=NCC(=O)N2CC1CC1)c1ccccc1F,C19H16ClFN2O,"InChI=1S/C19H16ClFN2O/c20-13-7-8-17-15(9-13)19(14-3-1-2-4-16(14)21)22-10-18(24)23(17)11-12-5-6-12/h1-4,7-9,12H,5-6,10-11H2",342.7945432,-6.11711935924,-1.5564912248600002,4.56062813438,2.6466235826087923
000003401,Fc1ccc(cc1)C(c1ccccc1F)(n1cncc1)c1ccccc1,C22H16F2N2,"InChI=1S/C22H16F2N2/c23-19-12-10-18(11-13-19)22(26-15-14-25-16-26,17-6-2-1-3-7-17)20-8-4-5-9-21(20)24/h1-16H",346.3726464,-5.81779412369,-0.7537553658850005,5.064038757804999,4.773088135352625
000003403,OC(=O)CC(CC(C=Cc1c(c2ccc(cc2)F)c2c(n1C(C)C)cccc2)O)O,C24H26FNO4,"InChI=1S/C24H26FNO4/c1-15(2)26-21-6-4-3-5-20(21)24(16-7-9-17(25)10-8-16)22(26)12-11-18(27)13-19(28)14-23(29)30/h3-12,15,18-19,27-28H,13-14H2,1-2H3,(H,29,30)",411.4659432,-5.2137013755799995,-1.0585228784450003,4.155178497134999,5.078711601479355
000003404,NCCON=C(c1ccc(cc1)C(F)(F)F)CCCCOC,C15H21F3N2O2,"InChI=1S/C15H21F3N2O2/c1-21-10-3-2-4-14(20-22-11-9-19)12-5-7-13(8-6-12)15(16,17)18/h5-8H,2-4,9-11,19H2,1H3",318.3346496,-6.13888846728,-1.0558017399400006,5.0830867273399996,5.5252518361557055
000003405,OC(=O)CCC(C(=O)O)NC(=O)c1ccc(cc1)NCc1cnc2c(n1)c(=O)nc([nH]2)N,C19H19N7O6,"InChI=1S/C19H19N7O6/c20-19-25-15-14(17(30)26-19)23-11(8-22-15)7-21-10-3-1-9(2-4-10)16(29)24-12(18(31)32)5-6-13(27)28/h1-4,8,12,21H,5-7H2,(H,24,29)(H,27,28)(H,31,32)(H3,20,22,25,26,30)",441.39746,-5.71983313751,-2.13337258792,3.5864605495900004,2.90771689020888
000003406,Cc1c[nH]nc1,C4H6N2,"InChI=1S/C4H6N2/c1-4-2-5-6-3-4/h2-3H,1H3,(H,5,6)",82.10384,-6.261339700005,0.5551122550200001,6.816451955025,2.2430767328074177
000003407,CN(Cc1c(Cl)cccc1NC(=O)c1ccccc1)CC(=O)N1CCOCC1,C21H24ClN3O3,"InChI=1S/C21H24ClN3O3/c1-24(15-20(26)25-10-12-28-13-11-25)14-17-18(22)8-5-9-19(17)23-21(27)16-6-3-2-4-7-16/h2-9H,10-15H2,1H3,(H,23,27)",401.88656,-5.67629492143,-0.45170899183000035,5.2245859296,3.224674054812517
000003408,O=C1CCC2(C(=C1O)CCC1C2CCC2(C1CCC2=O)C)C,C19H26O3,"InChI=1S/C19H26O3/c1-18-10-8-15(20)17(22)14(18)4-3-11-12-5-6-16(21)19(12,2)9-7-13(11)18/h11-13,22H,3-10H2,1-2H3",302.40794,-6.12256163625,-1.1075033715350004,5.015058264715,4.234528379836767
000003410,O=CNc1cc(ccc1O)C(CNC(Cc1ccc(cc1)OC)C)O,C19H24N2O4,"InChI=1S/C19H24N2O4/c1-13(9-14-3-6-16(25-2)7-4-14)20-11-19(24)15-5-8-18(23)17(10-15)21-12-22/h3-8,10,12-13,19-20,23-24H,9,11H2,1-2H3,(H,21,22)",344.40486,-5.695342890965001,-0.3782382521949996,5.317104638770001,3.005550289827638
000003411,OCC1OC(C(C1O)O)c1[nH]nc2c1[nH]cnc2=O,C10H12N4O5,"InChI=1S/C10H12N4O5/c15-1-3-7(16)8(17)9(19-3)5-4-6(14-13-5)10(18)12-2-11-4/h2-3,7-9,15-17H,1H2,(H,13,14)(H,11,12,18)",268.22608,-6.23140717645,-1.3115887594100002,4.91981841704,7.959930386361805
000003413,C=CC1(C)CC(=O)C2(C(O1)(C)C(OC(=O)C)C(C1C2(C)C(O)CCC1(C)C)O)O,C22H34O7,"InChI=1S/C22H34O7/c1-8-19(5)11-14(25)22(27)20(6)13(24)9-10-18(3,4)16(20)15(26)17(28-12(2)23)21(22,7)29-19/h8,13,15-17,24,26-27H,1,9-11H2,2-7H3",410.50116,-6.33481043964,-0.8027358589749998,5.532074580665,2.3475177394311633
000003416,CCC(=C(c1ccc(cc1)OP(=O)(O)O)CC)c1ccc(cc1)OP(=O)(O)O,C18H22O8P2,"InChI=1S/C18H22O8P2/c1-3-17(13-5-9-15(10-6-13)25-27(19,20)21)18(4-2)14-7-11-16(12-8-14)26-28(22,23)24/h5-12H,3-4H2,1-2H3,(H2,19,20,21)(H2,22,23,24)",428.310002,-6.174263267845,-0.3238154820950001,5.85044778575,3.8482620659743274
000003417,CC1OC1P(=O)(O)O,C3H7O4P,"InChI=1S/C3H7O4P/c1-2-3(7-2)8(4,5)6/h2-3H,1H3,(H2,4,5,6)",138.059041,-7.523947966325001,0.7455919503699997,8.269539916695,2.790103596846899
000003418,OC(=O)c1ccccc1OP(=O)(O)O,C7H7O6P,"InChI=1S/C7H7O6P/c8-7(9)5-3-1-2-4-6(5)13-14(10,11)12/h1-4H,(H,8,9)(H2,10,11,12)",218.100641,-7.25999753134,-1.5102318702749997,5.749765661065,8.349244274766729
000003422,OCC=CC=CC=CC(CC(C(C=CC1CC=CC(=O)O1)(O)C)OP(=O)(O)O)O,C19H27O9P,"InChI=1S/C19H27O9P/c1-19(23,12-11-16-9-7-10-18(22)27-16)17(28-29(24,25)26)14-15(21)8-5-3-2-4-6-13-20/h2-8,10-12,15-17,20-21,23H,9,13-14H2,1H3,(H2,24,25,26)",430.386041,-5.53479571917,-1.5020684547599998,4.03272726441,3.6277056495819777
000003423,COC(=O)c1c(C)[nH]c(c1C(=O)c1ccccc1Cc1ccccc1)C,C22H21NO3,"InChI=1S/C22H21NO3/c1-14-19(20(15(2)23-14)22(25)26-3)21(24)18-12-8-7-11-17(18)13-16-9-5-4-6-10-16/h4-12,23H,13H2,1-3H3",347.40704,-5.866774616780001,-1.13199361808,4.734780998700001,6.125439189470254
000003424,Cc1[nH]c(c(c1C(=O)c1ccccc1Cc1ccccc1)C)C,C21H21NO,"InChI=1S/C21H21NO/c1-14-15(2)22-16(3)20(14)21(23)19-12-8-7-11-18(19)13-17-9-5-4-6-10-17/h4-12,22H,13H2,1-3H3",303.39754,-5.439555871495,-0.8653220445900001,4.574233826905,4.536963131209686
000003427,CC(=CCCC(=CCSc1ncn[nH]1)C)CCC=C(C)C,C17H27N3S,"InChI=1S/C17H27N3S/c1-14(2)7-5-8-15(3)9-6-10-16(4)11-12-21-17-18-13-19-20-17/h7,9,11,13H,5-6,8,10,12H2,1-4H3,(H,18,19,20)",305.48138,-5.929360802395,-0.11156667870499959,5.817794123690001,3.4618198247245626
000003428,NCCCNCCCNCC(CCCN=C(N)N)N,C12H31N7,"InChI=1S/C12H31N7/c13-5-2-6-17-7-3-8-18-10-11(14)4-1-9-19-12(15)16/h11,17-18H,1-10,13-14H2,(H4,15,16,19)",273.42144,-5.798746154155,1.0802919864850002,6.8790381406400005,2.8139583824191496
000003429,OCC(C(C(C(O)C)O)O)O,C6H14O5,"InChI=1S/C6H14O5/c1-3(8)5(10)6(11)4(9)2-7/h3-11H,2H2,1H3",166.17236,-6.6559047832300005,1.13199361808,7.7878984013100006,2.207635616101987
000003430,COC1C(CCC2(C1C1(C)OC1CC=C(C)C)CO2)OC(=O)C=CC=CC=CC=CC(=O)O,C26H34O7,"InChI=1S/C26H34O7/c1-18(2)13-14-20-25(3,33-20)24-23(30-4)19(15-16-26(24)17-31-26)32-22(29)12-10-8-6-5-7-9-11-21(27)28/h5-13,19-20,23-24H,14-17H2,1-4H3,(H,27,28)",458.54396,-6.168820990835,-2.789166967625,3.37965402321,5.273086673645523
000003433,Cc1[nH]c2c(n1)n(Cc1ccco1)c(=O)n(c2=O)C,C12H12N4O3,"InChI=1S/C12H12N4O3/c1-7-13-9-10(14-7)16(6-8-4-3-5-19-8)12(18)15(2)11(9)17/h3-5H,6H2,1-2H3,(H,13,14)",260.24868,-5.79602501565,-1.0231480778800002,4.7728769377699996,4.7936346184095004
000003434,O=C1OC(CN1N=Cc1ccc(o1)[N+](=O)[O-])CN1CCOCC1,C13H16N4O6,"InChI=1S/C13H16N4O6/c18-13-16(14-7-10-1-2-12(22-10)17(19)20)9-11(23-13)8-15-3-5-21-6-4-15/h1-2,7,11H,3-6,8-9H2",324.28934,-6.234128314955,-2.560591333205,3.67353698175,8.809200053705558
000003435,O=C1OCCN1N=Cc1ccc(o1)[N+](=O)[O-],C8H7N3O5,"InChI=1S/C8H7N3O5/c12-8-10(3-4-15-8)9-5-6-1-2-7(16-6)11(13)14/h1-2,5H,3-4H2",225.15828,-6.307599054590001,-2.6122929648,3.6953060897900007,9.063891836035335
000003437,OC(=O)c1oc2c(c1)cc(cc2)Cc1cccnc1,C15H11NO3,"InChI=1S/C15H11NO3/c17-15(18)14-8-12-7-10(3-4-13(12)19-14)6-11-2-1-5-16-9-11/h1-5,7-9H,6H2,(H,17,18)",253.25274,-6.604203151635,-1.88302784546,4.721175306175,6.424580404380274
000003438,NCc1ccco1,C5H7NO,"InChI=1S/C5H7NO/c6-4-5-2-1-3-7-5/h1-3H,4,6H2",97.11518,-5.7688136305999995,0.24490246545000005,6.01371609605,1.6184144338364017
000003439,OC(=O)CCC(C(=O)O)NC(=O)c1ccc(cc1)N(Cc1coc2c1c(N)nc(n2)N)C,C20H22N6O6,"InChI=1S/C20H22N6O6/c1-26(8-11-9-32-18-15(11)16(21)24-20(22)25-18)12-4-2-10(3-5-12)17(29)23-13(19(30)31)6-7-14(27)28/h2-5,9,13H,6-8H2,1H3,(H,23,29)(H,27,28)(H,30,31)(H4,21,22,24,25)",442.42528,-5.36064285485,-0.7755244739250005,4.585118380925,7.636029675559807
000003440,OC(=O)c1cc(c(cc1NCc1ccco1)Cl)S(=O)(=O)N,C12H11ClN2O5S,"InChI=1S/C12H11ClN2O5S/c13-9-5-10(15-6-7-2-1-3-20-7)8(12(16)17)4-11(9)21(14,18)19/h1-5,15H,6H2,(H,16,17)(H2,14,18,19)",330.74414,-6.283108808045,-1.61635627197,4.666752536075,5.525711660796101
000003441,OCCC(=C(N(Cc1cnc(nc1N)C)C=O)C)SSCC1CCCO1,C17H26N4O3S2,"InChI=1S/C17H26N4O3S2/c1-12(16(5-6-22)26-25-10-15-4-3-7-24-15)21(11-23)9-14-8-19-13(2)20-17(14)18/h8,11,15,22H,3-7,9-10H2,1-2H3,(H2,18,19,20)",398.54334,-5.6055453203,-0.8381106595399999,4.76743466076,6.3988777431409805
000003442,CCCCc1ccc(nc1)C(=O)O,C10H13NO2,"InChI=1S/C10H13NO2/c1-2-3-4-8-5-6-9(10(12)13)11-7-8/h5-7H,2-4H2,1H3,(H,12,13)",179.21572,-7.194690207220001,-1.673500180575,5.521190026645001,6.348982729764981
000003445,NC1C=CC=C(C1)C(=O)O,C7H9NO2,"InChI=1S/C7H9NO2/c8-6-3-1-2-5(4-6)7(9)10/h1-3,6H,4,8H2,(H,9,10)",139.15186,-6.397396625255,-1.5700969173850003,4.82729970787,3.698500291783279
000003446,NCC1(CCCCC1)CC(=O)O,C9H17NO2,"InChI=1S/C9H17NO2/c10-7-9(6-8(11)12)4-2-1-3-5-9/h1-7,10H2,(H,11,12)",171.23678,-6.75386576941,0.6040927481100002,7.35795851752,6.176507481027283
000003447,CCOC(=O)c1ccc(cc1)OC(=O)CCCCCN=C(N)N,C16H23N3O4,"InChI=1S/C16H23N3O4/c1-2-22-15(21)12-7-9-13(10-8-12)23-14(20)6-4-3-5-11-19-16(17)18/h7-10H,2-6,11H2,1H3,(H4,17,18,19)",321.37152,-5.9348030794049995,-1.2462814352900002,4.688521644114999,1.6391384313995567
000003448,O=c1[nH]oc2c1CCNC2,C6H8N2O2,"InChI=1S/C6H8N2O2/c9-6-4-1-2-7-3-5(4)10-8-6/h7H,1-3H2,(H,8,9)",140.13992,-6.337531578145,-0.7510342273799999,5.586497350765,3.9888007592275154
000003449,COc1ccc2c3c1OC1C3(CCN(C2)C)C=CC(C1)O,C17H21NO3,"InChI=1S/C17H21NO3/c1-18-8-7-17-6-5-12(19)9-14(17)21-16-13(20-2)4-3-11(10-18)15(16)17/h3-6,12,14,19H,7-10H2,1-2H3",287.35354,-5.227307068105,-1.2653294048250001,3.9619776632799995,2.059919458764832
000003452,NC(C#C)CCC(=O)O,C6H9NO2,"InChI=1S/C6H9NO2/c1-2-5(7)3-4-6(8)9/h1,5H,3-4,7H2,(H,8,9)",127.14116,-6.740260076885,0.23673904993500017,6.97699912682,4.296545424990407
000003453,CCCCCC=CCC=CCC=CCCCCC(=O)O,C18H30O2,"InChI=1S/C18H30O2/c1-2-3-4-5-6-7-8-9-10-11-12-13-14-15-16-17-18(19)20/h6-7,9-10,12-13H,2-5,8,11,14-17H2,1H3,(H,19,20)",278.4296,-6.217801483925,0.21496994189500018,6.43277142582,4.279541221265429
000003454,OCC(OCn1cnc2c1[nH]c(N)nc2=O)CO,C9H13N5O4,"InChI=1S/C9H13N5O4/c10-9-12-7-6(8(17)13-9)11-3-14(7)4-18-5(1-15)2-16/h3,5,15-16H,1-2,4H2,(H3,10,12,13,17)",255.23062,-6.04636975811,-0.5796025015649997,5.466767256545,9.502674686552728
000003455,Fc1ccc(cc1)C(c1ccc(cc1)F)OCCN1CCN(CC1)CCCc1ccccc1,C28H32F2N2O,"InChI=1S/C28H32F2N2O/c29-26-12-8-24(9-13-26)28(25-10-14-27(30)15-11-25)33-22-21-32-19-17-31(18-20-32)16-4-7-23-5-2-1-3-6-23/h1-3,5-6,8-15,28H,4,7,16-22H2",450.5632864,-5.559285965715,-0.4843626538899999,5.074923311825001,2.7138680296700133
000003456,c1ccc(cc1)CCCN1CCN(CC1)CCOC(c1ccccc1)c1ccccc1,C28H34N2O,"InChI=1S/C28H34N2O/c1-4-11-25(12-5-1)13-10-18-29-19-21-30(22-20-29)23-24-31-28(26-14-6-2-7-15-26)27-16-8-3-9-17-27/h1-9,11-12,14-17,28H,10,13,18-24H2",414.58236,-5.464046118040001,-0.28027726601500014,5.1837688520250005,2.1571953846251386
000003457,CCOCn1c(=O)[nH]c(=O)c(c1Cc1cc(C)cc(c1)C)C(C)C,C19H26N2O3,"InChI=1S/C19H26N2O3/c1-6-24-11-21-16(10-15-8-13(4)7-14(5)9-15)17(12(2)3)18(22)20-19(21)23/h7-9,12H,6,10-11H2,1-5H3,(H,20,22,23)",330.42134,-6.212359206915,-1.0503594629300004,5.161999743985,5.766151090507515
000003458,CC(=O)OC1CC2C(C)(C)C(=O)C=CC2(C2C1(C)C13OC1C(=O)OC(C3(CC2)C)c1ccoc1)C,C28H34O7,"InChI=1S/C28H34O7/c1-15(29)33-20-13-18-24(2,3)19(30)8-10-25(18,4)17-7-11-26(5)21(16-9-12-32-14-16)34-23(31)22-28(26,35-22)27(17,20)6/h8-10,12,14,17-18,20-22H,7,11,13H2,1-6H3",482.56536,-6.06813886615,-1.55104894785,4.5170899183,6.498920669395881
000003459,CC(=CCCC(=O)OCC=C(CCC=C(C)C)C)CCC=C(CCC=C(C)C)C,C27H44O2,"InChI=1S/C27H44O2/c1-22(2)12-8-14-24(5)16-10-17-25(6)18-11-19-27(28)29-21-20-26(7)15-9-13-23(3)4/h12-13,16,18,20H,8-11,14-15,17,19,21H2,1-7H3",400.63706,-5.94840877193,0.25850815797500015,6.206916929905,2.52592332089258
000003461,OCC1OC(C(C1O)(F)F)n1ccc(nc1=O)N,C9H11F2N3O4,"InChI=1S/C9H11F2N3O4/c10-9(11)6(16)4(3-15)18-7(9)14-2-1-5(12)13-8(14)17/h1-2,4,6-7,15-16H,3H2,(H2,12,13,17)",263.1981464,-6.29671450057,-1.2109066347250002,5.085807865845,5.062462367605511
000003462,CCCCC(C(C=CC1C(O)CC(=O)C1CCCCC=CC(=O)OC)O)(C)C,C23H38O5,"InChI=1S/C23H38O5/c1-5-6-15-23(2,3)21(26)14-13-18-17(19(24)16-20(18)25)11-9-7-8-10-12-22(27)28-4/h10,12-14,17-18,20-21,25-26H,5-9,11,15-16H2,1-4H3",394.54482,-6.42732914881,-1.0340326318999997,5.3932965169100004,1.2513948859456794
000003463,Cc1ccc(c(c1)OCCCC(C(=O)O)(C)C)C,C15H22O3,"InChI=1S/C15H22O3/c1-11-6-7-12(2)13(10-11)18-9-5-8-15(3,4)14(16)17/h6-7,10H,5,8-9H2,1-4H3,(H,16,17)",250.33338,-5.6164298743200005,0.054422770100000406,5.670852644420001,3.3136738591486337
000003464,OC(=O)CC(C(=O)O)SCCN=C(N)N,C7H13N3O4S,"InChI=1S/C7H13N3O4S/c8-7(9)10-1-2-15-4(6(13)14)3-5(11)12/h4H,1-3H2,(H,11,12)(H,13,14)(H4,8,9,10)",235.26082,-6.277666531035,-0.8326683825299996,5.444998148505,8.63283336245013
000003467,CNC(C1CCC(C(O1)OC1C(N)CC(C(C1O)OC1OCC(C(C1O)NC)(C)O)N)N)C,C21H43N5O7,"InChI=1S/C21H43N5O7/c1-9(25-3)13-6-5-10(22)19(31-13)32-16-11(23)7-12(24)17(14(16)27)33-20-15(28)18(26-4)21(2,29)8-30-20/h9-20,25-29H,5-8,22-24H2,1-4H3",477.59542,-5.77969818462,0.7836878894400003,6.56338607406,2.775023943896881