mol_id,SMILES,formula,inchi,mass,HOMO(eV),LUMO(eV),GAP(eV),dipole_moment
000004303,NCCCCCNS(=O)(=O)c1cccc2c1cccc2,C15H20N2O2S,"InChI=1S/C15H20N2O2S/c16-11-4-1-5-12-17-20(18,19)15-10-6-8-13-7-2-3-9-14(13)15/h2-3,6-10,17H,1,4-5,11-12,16H2",292.3965,-6.128003913260001,-1.7143172581500004,4.41368665511,4.7633571561419785
000004304,NCCCCCNS(=O)(=O)c1cccc2c1cccc2Cl,C15H19ClN2O2S,"InChI=1S/C15H19ClN2O2S/c16-14-8-4-7-13-12(14)6-5-9-15(13)21(19,20)18-11-3-1-2-10-17/h4-9,18H,1-3,10-11,17H2",326.84156,-6.168820990835,-1.9537774465900002,4.215043544245,3.457478430566126
000004305,NCCCCCNS(=O)(=O)c1ccc2c(c1)cccc2Cl,C15H19ClN2O2S,"InChI=1S/C15H19ClN2O2S/c16-15-6-4-5-12-11-13(7-8-14(12)15)21(19,20)18-10-3-1-2-9-17/h4-8,11,18H,1-3,9-10,17H2",326.84156,-6.147051882795,-1.918402646025,4.22864923677,4.20467945325693
000004306,NCCCCCCNS(=O)(=O)c1ccc2c(c1)cccc2Cl,C16H21ClN2O2S,"InChI=1S/C16H21ClN2O2S/c17-16-7-5-6-13-12-14(8-9-15(13)16)22(20,21)19-11-4-2-1-3-10-18/h5-9,12,19H,1-4,10-11,18H2",340.86814,-6.13888846728,-1.9129603690149999,4.225928098265,3.939030727734553
000004308,CC(CC(C(=O)O)NC(=O)OCC1c2ccccc2c2c1cccc2)C,C21H23NO4,"InChI=1S/C21H23NO4/c1-13(2)11-19(20(23)24)22-21(25)26-12-18-16-9-5-3-7-14(16)15-8-4-6-10-17(15)18/h3-10,13,18-19H,11-12H2,1-2H3,(H,22,25)(H,23,24)",353.41162,-6.038206342595,-1.0639651554549996,4.9742411871400005,4.992259284979598
000004309,c1ccc(cc1)CNn1nnc2c1cccc2,C13H12N4,"InChI=1S/C13H12N4/c1-2-6-11(7-3-1)10-14-17-13-9-5-4-8-12(13)15-16-17/h1-9,14H,10H2",224.26118,-6.25317628449,-1.1211090640599997,5.132067220430001,2.9664014846500466
000004310,OC(=O)c1cccc2c1Oc1c(N2c2cccc(c2)C(F)(F)F)cccc1C(=O)O,C21H12F3NO5,"InChI=1S/C21H12F3NO5/c22-21(23,24)11-4-1-5-12(10-11)25-15-8-2-6-13(19(26)27)17(15)30-18-14(20(28)29)7-3-9-16(18)25/h1-10H,(H,26,27)(H,28,29)",415.3188896,-5.8232364007,-1.7061538426350005,4.1170825580649995,9.035915802660458
000004311,NC(=O)CCC(C(=O)OC(C)C)NS(=O)(=O)c1ccc(cc1)C,C15H22N2O5S,"InChI=1S/C15H22N2O5S/c1-10(2)22-15(19)13(8-9-14(16)18)17-23(20,21)12-6-4-11(3)5-7-12/h4-7,10,13,17H,8-9H2,1-3H3,(H2,16,18)",342.41058,-6.576991766585,-1.140157033595,5.43683473299,2.212067945497606
000004312,O=C(CP(=O)(O)O)NC(C(=O)O)CC(=O)O,C6H10NO8P,"InChI=1S/C6H10NO8P/c8-4(2-16(13,14)15)7-3(6(11)12)1-5(9)10/h3H,1-2H2,(H,7,8)(H,9,10)(H,11,12)(H2,13,14,15)",255.119261,-7.197411345725,-1.0340326318999997,6.163378713825001,4.4933036373529225
000004314,NCCCCCCNS(=O)(=O)c1cccc2c1cccc2,C16H22N2O2S,"InChI=1S/C16H22N2O2S/c17-12-5-1-2-6-13-18-21(19,20)16-11-7-9-14-8-3-4-10-15(14)16/h3-4,7-11,18H,1-2,5-6,12-13,17H2",306.42308,-6.130725051765,-1.7143172581500004,4.416407793615,3.8371772259193344
000004315,COC(=O)n1ccn(c(c1)CC(=O)NCc1ccc2c(c1)OCO2)c1ccnc(n1)n1cncc1,C23H21N7O5,"InChI=1S/C23H21N7O5/c1-33-23(32)28-8-9-30(20-4-5-25-22(27-20)29-7-6-24-14-29)17(13-28)11-21(31)26-12-16-2-3-18-19(10-16)35-15-34-18/h2-10,13-14H,11-12,15H2,1H3,(H,26,31)",475.45674,-5.020500541725,-1.287098512865,3.73340202886,3.438919500515969
000004316,COc1ccc(cc1)CNS(=O)(=O)c1ccc(s1)S(=O)(=O)N,C12H14N2O5S3,"InChI=1S/C12H14N2O5S3/c1-19-10-4-2-9(3-5-10)8-14-22(17,18)12-7-6-11(20-12)21(13,15)16/h2-7,14H,8H2,1H3,(H2,13,15,16)",362.44496,-5.902149417345,-2.1224880339,3.779661383445,1.7091243669756744
000004317,CC(CC(C(=O)NCCC(C)C)NC(=O)C(CC(=O)O)O)C,C15H28N2O5,"InChI=1S/C15H28N2O5/c1-9(2)5-6-16-14(21)11(7-10(3)4)17-15(22)12(18)8-13(19)20/h9-12,18H,5-8H2,1-4H3,(H,16,21)(H,17,22)(H,19,20)",316.39322,-6.957951157285,-0.34286345162999954,6.615087705655,5.45857690246588
000004323,CNC(=O)C(Cc1ccc(cc1)OC)NC(=O)C(CC(=O)NO)CC(C)C,C19H29N3O5,"InChI=1S/C19H29N3O5/c1-12(2)9-14(11-17(23)22-26)18(24)21-16(19(25)20-3)10-13-5-7-15(27-4)8-6-13/h5-8,12,14,16,26H,9-11H2,1-4H3,(H,20,25)(H,21,24)(H,22,23)",379.45066,-5.84500550874,-0.28027726601500014,5.564728242725,4.438824067071368
000004324,OC(=O)C1(CC1)NCc1c(cnc(c1O)C)COP(=O)(O)O,C12H17N2O7P,"InChI=1S/C12H17N2O7P/c1-7-10(15)9(5-14-12(2-3-12)11(16)17)8(4-13-7)6-21-22(18,19)20/h4,14-15H,2-3,5-6H2,1H3,(H,16,17)(H2,18,19,20)",332.246341,-5.989225849505,-0.721101703825,5.26812414568,5.5518296833408
000004326,OC(=O)CCNC(=O)C1CCCN1S(=O)(=O)c1ccc(cc1)C(=O)NC(C(=O)O)CCC(=O)O,C20H25N3O10S,"InChI=1S/C20H25N3O10S/c24-16(25)8-7-14(20(30)31)22-18(28)12-3-5-13(6-4-12)34(32,33)23-11-1-2-15(23)19(29)21-10-9-17(26)27/h3-6,14-15H,1-2,7-11H2,(H,21,29)(H,22,28)(H,24,25)(H,26,27)(H,30,31)",499.4916,-6.163378713825001,-1.6245196874849999,4.538859026340001,4.868312234948884
000004327,O=C(c1cccnc1)Nc1ccc(c(c1)Nc1nccc(n1)c1cccnc1)C,C22H18N6O,"InChI=1S/C22H18N6O/c1-15-6-7-18(26-21(29)17-5-3-10-24-14-17)12-20(15)28-22-25-11-8-19(27-22)16-4-2-9-23-13-16/h2-14H,1H3,(H,26,29)(H,25,27,28)",382.41792,-5.542959134685,-1.46397251569,4.078986618995,2.758528604107269
000004328,ONC(=O)C(N(P(=O)(c1ccccc1)C)Cc1ccccc1)CC(C)C,C20H27N2O3P,"InChI=1S/C20H27N2O3P/c1-16(2)14-19(20(23)21-24)22(15-17-10-6-4-7-11-17)26(3,25)18-12-8-5-9-13-18/h4-13,16,19,24H,14-15H2,1-3H3,(H,21,23)",374.413741,-6.010994957545001,-0.6884480417649996,5.322546915780001,2.9553820439723184
000004331,CSCCC(NC(=O)C(NC(=O)C(NC(=O)C)CC(C)C)CC(C)C)C=O,C19H35N3O4S,"InChI=1S/C19H35N3O4S/c1-12(2)9-16(20-14(5)24)19(26)22-17(10-13(3)4)18(25)21-15(11-23)7-8-27-6/h11-13,15-17H,7-10H2,1-6H3,(H,20,24)(H,21,25)(H,22,26)",401.5639,-5.93752421791,-1.1728106956549995,4.7647135222550006,3.762800540989251
000004332,CCCCC(NC(=O)C(NC(=O)C(NC(=O)C)CC(C)C)CC(C)C)C=O,C20H37N3O4,"InChI=1S/C20H37N3O4/c1-7-8-9-16(12-24)22-19(26)18(11-14(4)5)23-20(27)17(10-13(2)3)21-15(6)25/h12-14,16-18H,7-11H2,1-6H3,(H,21,25)(H,22,26)(H,23,27)",383.52548,-6.277666531035,-0.6503521026949999,5.62731442834,6.516138324426056
000004333,O=CC(Cc1ccccc1)NC(=O)C(NC(=O)C)CC(C)C,C17H24N2O3,"InChI=1S/C17H24N2O3/c1-12(2)9-16(18-13(3)21)17(22)19-15(11-20)10-14-7-5-4-6-8-14/h4-8,11-12,15-16H,9-10H2,1-3H3,(H,18,21)(H,19,22)",304.38406,-6.4218868718,-1.1428781720999996,5.2790086997,4.746675440801172
000004335,OCC(C(c1ccc(cc1)[N+](=O)[O-])O)NC(=O)C,C11H14N2O5,"InChI=1S/C11H14N2O5/c1-7(15)12-10(6-14)11(16)8-2-4-9(5-3-8)13(17)18/h2-5,10-11,14,16H,6H2,1H3,(H,12,15)",254.23926,-6.889922694659999,-2.3211311447650003,4.568791549894999,4.733429055697887
000004336,COC(=O)C(NC(=O)C)CSCC=C(CCC=C(CCC=C(C)C)C)C,C21H35NO3S,"InChI=1S/C21H35NO3S/c1-16(2)9-7-10-17(3)11-8-12-18(4)13-14-26-15-20(21(24)25-6)22-19(5)23/h9,11,13,20H,7-8,10,12,14-15H2,1-6H3,(H,22,23)",381.5725,-5.9320819409,-0.03809593906999975,5.89398600183,3.332036607650943
000004339,O=CC(NC(=O)C(NC(=O)C(C(C)C)NC(=O)C(Cc1ccc(cc1)O)NC(=O)C)C)CC(=O)O,C23H32N4O8,"InChI=1S/C23H32N4O8/c1-12(2)20(23(35)24-13(3)21(33)26-16(11-28)10-19(31)32)27-22(34)18(25-14(4)29)9-15-5-7-17(30)8-6-15/h5-8,11-13,16,18,20,30H,9-10H2,1-4H3,(H,24,35)(H,25,29)(H,26,33)(H,27,34)(H,31,32)",492.52218,-6.054533173625,-1.6190774104749996,4.43545576315,4.709226473429687
000004340,OCC1OC2SC(=NC2C(C1O)O)C,C8H13NO4S,"InChI=1S/C8H13NO4S/c1-3-9-5-7(12)6(11)4(2-10)13-8(5)14-3/h4-8,10-12H,2H2,1H3",219.25812,-6.451819395355001,-0.42993988379000037,6.021879511565,3.5758535221450276
000004341,CCCCCC=CCC=CC=CC=CC(C(CCCC(=O)O)O)SCC(C(=O)O)NC(=O)C,C25H39NO6S,"InChI=1S/C25H39NO6S/c1-3-4-5-6-7-8-9-10-11-12-13-14-17-23(22(28)16-15-18-24(29)30)33-19-21(25(31)32)26-20(2)27/h7-8,10-14,17,21-23,28H,3-6,9,15-16,18-19H2,1-2H3,(H,26,27)(H,29,30)(H,31,32)",481.64526,-5.521190026645,-1.3306367289450005,4.190553297699999,10.348709860066325
000004342,CCN(CCNC(=O)c1ccc(cc1)NC(=O)C)CC,C15H23N3O2,"InChI=1S/C15H23N3O2/c1-4-18(5-2)11-10-16-15(20)13-6-8-14(9-7-13)17-12(3)19/h6-9H,4-5,10-11H2,1-3H3,(H,16,20)(H,17,19)",277.36202,-5.82867867771,-0.6585155182099998,5.1701631595,2.507999836055417
000004343,NCCCCC(C(=O)N)NS(=O)(=O)c1ccc(cc1)C,C13H21N3O3S,"InChI=1S/C13H21N3O3S/c1-10-5-7-11(8-6-10)20(18,19)16-12(13(15)17)4-2-3-9-14/h5-8,12,16H,2-4,9,14H2,1H3,(H2,15,17)",299.38914,-6.0572543121299995,-1.3551269754900002,4.702127336639999,6.800025166094902
000004345,CCCCCC=CCC=CCC=CCC=CCCCC(=O)NCC(=O)O,C22H35NO3,"InChI=1S/C22H35NO3/c1-2-3-4-5-6-7-8-9-10-11-12-13-14-15-16-17-18-19-21(24)23-20-22(25)26/h6-7,9-10,12-13,15-16H,2-5,8,11,14,17-20H2,1H3,(H,23,24)(H,25,26)",361.5182,-6.272224254025001,-0.2748349890049999,5.997389265020001,6.298545951268276
000004346,CCOC(CN(S(=O)(=O)c1ccc(cc1)C)Cc1ccc2c(c1)OCO2)OCC,C21H27NO6S,"InChI=1S/C21H27NO6S/c1-4-25-21(26-5-2)14-22(29(23,24)18-9-6-16(3)7-10-18)13-17-8-11-19-20(12-17)28-15-27-19/h6-12,21H,4-5,13-15H2,1-3H3",421.50718,-5.488536364585,-1.0775708479800006,4.410965516605,4.863457504322825
000004347,O=C(c1ccc(cc1)S(=O)(=O)N)NCc1ccccc1,C14H14N2O3S,"InChI=1S/C14H14N2O3S/c15-20(18,19)13-8-6-12(7-9-13)14(17)16-10-11-4-2-1-3-5-11/h1-9H,10H2,(H,16,17)(H2,15,18,19)",290.33756,-6.6395779522,-1.428597715125,5.210980237075,2.3157791019380496
000004348,OCCNCc1ccccc1,C9H13NO,"InChI=1S/C9H13NO/c11-7-6-10-8-9-4-2-1-3-5-9/h1-5,10-11H,6-8H2",151.20562,-6.174263267845,-0.10068212468500004,6.07358114316,1.4209565613589321
000004349,O=C(NC(C(=O)N1CCCC1C(=O)NC(C(O)C)Cc1ccccc1)C)OCc1ccccc1,C26H33N3O5,"InChI=1S/C26H33N3O5/c1-18(27-26(33)34-17-21-12-7-4-8-13-21)25(32)29-15-9-14-23(29)24(31)28-22(19(2)30)16-20-10-5-3-6-11-20/h3-8,10-13,18-19,22-23,30H,9,14-17H2,1-2H3,(H,27,33)(H,28,31)",467.55732,-6.255897422995,-0.31020978957,5.945687633425,2.7608163836557473
000004350,O=CC1CCCN1C(=O)C1CCCN1C(=O)OCc1ccccc1,C18H22N2O4,"InChI=1S/C18H22N2O4/c21-12-15-8-4-10-19(15)17(22)16-9-5-11-20(16)18(23)24-13-14-6-2-1-3-7-14/h1-3,6-7,12,15-16H,4-5,8-11,13H2",330.37828,-6.168820990835,-0.5823236400700003,5.586497350765,3.8214792949391994
000004351,NCCCCNC(=O)OC(C)(C)C,C9H20N2O2,"InChI=1S/C9H20N2O2/c1-9(2,3)13-8(12)11-7-5-4-6-10/h4-7,10H2,1-3H3,(H,11,12)",188.2673,-6.168820990835,1.4394822691449995,7.60830325998,1.64874053620271
000004352,NCCCCCNC(=O)OC(C)(C)C,C10H22N2O2,"InChI=1S/C10H22N2O2/c1-10(2,3)14-9(13)12-8-6-4-5-7-11/h4-8,11H2,1-3H3,(H,12,13)",202.29388,-6.1878689603699994,1.4993473162550002,7.687216276625,0.8525972701093993
000004355,NCCCCNNC(=O)C1CCCN1C(=O)OCc1ccccc1,C17H26N4O3,"InChI=1S/C17H26N4O3/c18-10-4-5-11-19-20-16(22)15-9-6-12-21(15)17(23)24-13-14-7-2-1-3-8-14/h1-3,7-8,15,19H,4-6,9-13,18H2,(H,20,22)",334.41334,-5.940245356415,-0.32109434358999955,5.619151012825,2.6596912944409548
000004356,CC(CC(C(=O)O)NC(=O)C(Cc1ccccc1)NCC(=O)O)C,C17H24N2O5,"InChI=1S/C17H24N2O5/c1-11(2)8-14(17(23)24)19-16(22)13(18-10-15(20)21)9-12-6-4-3-5-7-12/h3-7,11,13-14,18H,8-10H2,1-2H3,(H,19,22)(H,20,21)(H,23,24)",336.38286,-6.89536497167,-0.7455919503699997,6.149773021300001,7.759492598855868
000004358,O=C(NC1CCCCC1)NCCCc1ccccc1,C16H24N2O,"InChI=1S/C16H24N2O/c19-16(18-15-11-5-2-6-12-15)17-13-7-10-14-8-3-1-4-9-14/h1,3-4,8-9,15H,2,5-7,10-13H2,(H2,17,18,19)",260.37456,-6.321204747115,0.040817077575000305,6.36202182469,2.9986209819743808
000004359,CCCCCCCCCCNC(=O)NC1CCCCC1,C17H34N2O,"InChI=1S/C17H34N2O/c1-2-3-4-5-6-7-8-12-15-18-17(20)19-16-13-10-9-11-14-16/h16H,2-15H2,1H3,(H2,18,19,20)",282.46466,-6.2803876695400005,1.5782603329000002,7.858648002440001,3.2212295749086244
000004360,O=CNCCCCC(C(=O)O)N,C7H14N2O3,"InChI=1S/C7H14N2O3/c8-6(7(11)12)3-1-2-4-9-5-10/h5-6H,1-4,8H2,(H,9,10)(H,11,12)",174.19766,-6.582434043595001,0.2557870194699996,6.838221063065,6.2378178381759435
000004361,CCNC(=O)C=C(C=CC=C(C=CC1=C(C)CCCC1(C)C)C)C,C22H33NO,"InChI=1S/C22H33NO/c1-7-23-21(24)16-18(3)11-8-10-17(2)13-14-20-19(4)12-9-15-22(20,5)6/h8,10-11,13-14,16H,7,9,12,15H2,1-6H3,(H,23,24)",327.50352,-5.455882702525001,-1.4802993467199999,3.975583355805001,3.2371622596966003
000004362,CCN1C(=O)C=CC1=O,C6H7NO2,"InChI=1S/C6H7NO2/c1-2-7-5(8)3-4-6(7)9/h3-4H,2H2,1H3",125.12528,-7.314420301439999,-2.5633124717099998,4.75110782973,1.13776832834545
000004363,CSCCC(C(=O)NC(C(=O)O)C)NC=O,C9H16N2O4S,"InChI=1S/C9H16N2O4S/c1-6(9(14)15)11-8(13)7(10-5-12)3-4-16-2/h5-7H,3-4H2,1-2H3,(H,10,12)(H,11,13)(H,14,15)",248.29934,-6.321204747115,-0.5796025015649997,5.74160224555,7.7748388911260395
000004364,CSCCC(C(=O)NC(C(=O)NC(C(=O)O)Cc1ccccc1)CC(C)C)NC=O,C21H31N3O5S,"InChI=1S/C21H31N3O5S/c1-14(2)11-17(23-19(26)16(22-13-25)9-10-30-3)20(27)24-18(21(28)29)12-15-7-5-4-6-8-15/h4-8,13-14,16-18H,9-12H2,1-3H3,(H,22,25)(H,23,26)(H,24,27)(H,28,29)",437.55294,-5.96473560296,-0.4081707757500004,5.55656482721,5.291665395095763
000004365,CSCCC(C(=O)NC(C(=O)O)Cc1ccccc1)NC=O,C15H20N2O4S,"InChI=1S/C15H20N2O4S/c1-22-8-7-12(16-10-18)14(19)17-13(15(20)21)9-11-5-3-2-4-6-11/h2-6,10,12-13H,7-9H2,1H3,(H,16,18)(H,17,19)(H,20,21)",324.3953,-5.839563231730001,-0.6040927481100002,5.23547048362,6.063832310711849
000004366,CN=C(NCCCC(C(=O)O)N)N,C7H16N4O2,"InChI=1S/C7H16N4O2/c1-10-7(9)11-4-2-3-5(8)6(12)13/h5H,2-4,8H2,1H3,(H,12,13)(H3,9,10,11)",188.22754,-6.03548520409,0.1306146482399999,6.16609985233,3.9560323203680983
000004367,[O-][N+](=O)NC(=NCCCC(C(=O)O)N)N,C6H13N5O4,"InChI=1S/C6H13N5O4/c7-4(5(12)13)2-1-3-9-6(8)10-11(14)15/h4H,1-3,7H2,(H,12,13)(H3,8,9,10)",219.19852,-6.674952752765,-1.7007115656250003,4.97424118714,1.0809756626233544
000004368,COc1ccc(cc1)S(=O)(=O)N(c1c(C)cccc1C(=O)NO)Cc1cccnc1,C21H21N3O5S,"InChI=1S/C21H21N3O5S/c1-15-5-3-7-19(21(25)23-26)20(15)24(14-16-6-4-12-22-13-16)30(27,28)18-10-8-17(29-2)9-11-18/h3-13,26H,14H2,1-2H3,(H,23,25)",427.47354,-6.443655979840001,-1.2462814352900002,5.197374544550001,4.09828830468697
000004369,ONC(=O)CC1(CCOCC1)S(=O)(=O)c1ccc(cc1)Oc1ccccc1,C19H21NO6S,"InChI=1S/C19H21NO6S/c21-18(20-22)14-19(10-12-25-13-11-19)27(23,24)17-8-6-16(7-9-17)26-15-4-2-1-3-5-15/h1-9,22H,10-14H2,(H,20,21)",391.43814,-6.530732412,-1.2000220807049997,5.330710331295,6.087100503761212
000004370,ONC(=O)C1N(CCCSC1(C)C)S(=O)(=O)c1ccc(cc1)OC,C15H22N2O5S2,"InChI=1S/C15H22N2O5S2/c1-15(2)13(14(18)16-19)17(9-4-10-23-15)24(20,21)12-7-5-11(22-3)6-8-12/h5-8,13,19H,4,9-10H2,1-3H3,(H,16,18)",374.47558,-5.58377621226,-1.297983066885,4.285793145375,6.462429106053776
000004372,CCCCCC=CCC=CCCCCCCCC(=O)NCC(=O)O,C20H35NO3,"InChI=1S/C20H35NO3/c1-2-3-4-5-6-7-8-9-10-11-12-13-14-15-16-17-19(22)21-18-20(23)24/h6-7,9-10H,2-5,8,11-18H2,1H3,(H,21,22)(H,23,24)",337.4968,-6.234128314955,-0.2612292964799998,5.972899018475,5.883657208211742
000004374,OC(C(N(C)C)C)c1ccccc1,C11H17NO,"InChI=1S/C11H17NO/c1-9(12(2)3)11(13)10-7-5-4-6-8-10/h4-9,11,13H,1-3H3",179.25878,-5.891264863325,0.07074960113000017,5.962014464455001,1.7211622487014406
000004375,CNC(=O)c1ncc2c(c1)c1ccccc1[nH]2,C13H11N3O,"InChI=1S/C13H11N3O/c1-14-13(17)11-6-9-8-4-2-3-5-10(8)16-12(9)7-15-11/h2-7,16H,1H3,(H,14,17)",225.24594,-5.888543724820001,-1.2952619283800004,4.59328179644,4.819930167921626
000004376,CNC(C(=O)O)CC(=O)O,C5H9NO4,"InChI=1S/C5H9NO4/c1-6-3(5(9)10)2-4(7)8/h3,6H,2H2,1H3,(H,7,8)(H,9,10)",147.12926,-6.838221063065001,-0.34830572863999976,6.489915334425001,1.493515707746323
000004377,CC(C(=O)O)NC,C4H9NO2,"InChI=1S/C4H9NO2/c1-3(5-2)4(6)7/h3,5H,1-2H3,(H,6,7)",103.11976,-6.615087705655,0.3727959751850003,6.9878836808400004,5.174975313453582
000004378,CNC(C(=O)O)C(C)C,C6H13NO2,"InChI=1S/C6H13NO2/c1-4(2)5(7-3)6(8)9/h4-5,7H,1-3H3,(H,8,9)",131.17292,-6.56338607406,0.3183732050849999,6.881759279145,4.928456186131109
000004379,CN(S(=O)(=O)c1ccccc1)CC(=O)O,C9H11NO4S,"InChI=1S/C9H11NO4S/c1-10(7-9(11)12)15(13,14)8-5-3-2-4-6-8/h2-6H,7H2,1H3,(H,11,12)",229.25294,-7.077681251505,-1.6626156265550005,5.4150656249499995,6.128161610153652
000004380,C#CCN(CCCOc1ccc(cc1Cl)Cl)C,C13H15Cl2NO,"InChI=1S/C13H15Cl2NO/c1-3-7-16(2)8-4-9-17-13-6-5-11(14)10-12(13)15/h1,5-6,10H,4,7-9H2,2H3",272.1703,-6.005552680535001,-0.5904870555850001,5.41506562495,2.4396078773270102
000004381,OCC1N(C)CC(C(C1O)O)O,C7H15NO4,"InChI=1S/C7H15NO4/c1-8-2-5(10)7(12)6(11)4(8)3-9/h4-7,9-12H,2-3H2,1H3",177.1983,-6.054533173625,0.9605618922649999,7.01509506589,1.4680618081354748
000004382,CNCCc1ccc(c(c1)O)O,C9H13NO2,"InChI=1S/C9H13NO2/c1-10-5-4-7-2-3-8(11)9(12)6-7/h2-3,6,10-12H,4-5H2,1H3",167.20502,-5.417786763455,0.21496994189500018,5.63275670535,3.2860718505653526
000004383,CCCCCCCCC=CCCCCCCCC(=O)NCCO,C20H39NO2,"InChI=1S/C20H39NO2/c1-2-3-4-5-6-7-8-9-10-11-12-13-14-15-16-17-20(23)21-18-19-22/h9-10,22H,2-8,11-19H2,1H3,(H,21,23)",325.52916,-6.283108808045,0.6122561636250001,6.89536497167,3.1518142330126313
000004384,ClCC(=O)C(C(C)C)NS(=O)(=O)c1ccc(cc1)C,C13H18ClNO3S,"InChI=1S/C13H18ClNO3S/c1-9(2)13(12(16)8-14)15-19(17,18)11-6-4-10(3)5-7-11/h4-7,9,13,15H,8H2,1-3H3",303.80492,-6.479030780405,-1.3469635599750003,5.13206722043,5.836461785618407
000004385,CC(C(=O)NC(C(=O)N)C)NC(=O)OC(C)(C)C,C11H21N3O4,"InChI=1S/C11H21N3O4/c1-6(8(12)15)13-9(16)7(2)14-10(17)18-11(3,4)5/h6-7H,1-5H3,(H2,12,15)(H,13,16)(H,14,17)",259.30214,-6.266781977015,0.25034474246000027,6.517126719475001,3.4999867946756598
000004386,OC(=O)c1ccccc1Nc1ccccc1,C13H11NO2,"InChI=1S/C13H11NO2/c15-13(16)11-8-4-5-9-12(11)14-10-6-2-1-3-7-10/h1-9,14H,(H,15,16)",213.23194,-5.619151012825,-1.0666862939600001,4.552464718865,4.582766768011765
000004387,CCCN=C(NCCCC(C(=O)O)N)N,C9H20N4O2,"InChI=1S/C9H20N4O2/c1-2-5-12-9(11)13-6-3-4-7(10)8(14)15/h7H,2-6,10H2,1H3,(H,14,15)(H3,11,12,13)",216.2807,-6.10079252821,0.4816415153850002,6.582434043595001,6.569249080530133
000004388,CCCNC(=O)C(C(C(=O)O)O)O,C7H13NO5,"InChI=1S/C7H13NO5/c1-2-3-8-6(11)4(9)5(10)7(12)13/h4-5,9-10H,2-3H2,1H3,(H,8,11)(H,12,13)",191.18182,-7.14026743712,-0.47892037687999967,6.661347060240001,5.250159733786488
000004389,OC(=O)CCC(=O)N1CCCC1C(=O)O,C9H13NO5,"InChI=1S/C9H13NO5/c11-7(3-4-8(12)13)10-5-1-2-6(10)9(14)15/h6H,1-5H2,(H,12,13)(H,14,15)",215.20322,-7.129382883100001,-0.9061391221650004,6.223243760935,4.969115588609707
000004390,CC([N+](=Cc1ccccc1)[O-])(C)C,C11H15NO,"InChI=1S/C11H15NO/c1-11(2,3)12(13)9-10-7-5-4-6-8-10/h4-9H,1-3H3",177.2429,-5.504863195615,-0.42993988379000037,5.074923311825,3.7141482188223187
000004391,OCCN(S(=O)(=O)c1cccc(c1)N)CCO,C10H16N2O4S,"InChI=1S/C10H16N2O4S/c11-9-2-1-3-10(8-9)17(15,16)12(4-6-13)5-7-14/h1-3,8,13-14H,4-7,11H2",260.31004,-6.22052262243,-1.3088676209049996,4.911655001525,3.7332545152105556
000004392,OC1C(O)C(OC1n1cnc2c1ccc(c2)C)COP(=O)(O)O,C13H17N2O7P,"InChI=1S/C13H17N2O7P/c1-7-2-3-9-8(4-7)14-6-15(9)13-12(17)11(16)10(22-13)5-21-23(18,19)20/h2-4,6,10-13,16-17H,5H2,1H3,(H2,18,19,20)",344.257041,-5.91575510987,-0.47347809987000034,5.44227701,4.626293117128227
000004393,COCCN1CCCCC(C1=O)NC(=O)C(C(C(=O)NO)CCCO)CC(C)C,C20H37N3O6,"InChI=1S/C20H37N3O6/c1-14(2)13-16(15(7-6-11-24)19(26)22-28)18(25)21-17-8-4-5-9-23(20(17)27)10-12-29-3/h14-17,24,28H,4-13H2,1-3H3,(H,21,25)(H,22,26)",415.52428,-5.83412095472,-0.17687400282499954,5.657246951895001,2.0512923172076185
000004394,ONC(=O)CC(C(=O)NC1Cc2cn(c3c2cccc3)CCCCCCNC1=O)CC(C)C,C25H36N4O4,"InChI=1S/C25H36N4O4/c1-17(2)13-18(15-23(30)28-33)24(31)27-21-14-19-16-29(22-10-6-5-9-20(19)22)12-8-4-3-7-11-26-25(21)32/h5-6,9-10,16-18,21,33H,3-4,7-8,11-15H2,1-2H3,(H,26,32)(H,27,31)(H,28,30)",456.57774,-5.390575378405,-0.3646325596700004,5.0259428187349995,2.655539023205082
000004395,OC(=O)C(CCCN=C(N)C)N,C7H15N3O2,"InChI=1S/C7H15N3O2/c1-5(8)10-4-2-3-6(9)7(11)12/h6H,2-4,9H2,1H3,(H2,8,10)(H,11,12)",173.2129,-6.12256163625,0.20408538787499975,6.326647024125,3.794411852807494
000004396,OCC1OC(C(C1O)O)n1cnc2c1ncnc2NCc1ccc(cc1)N,C17H20N6O4,"InChI=1S/C17H20N6O4/c18-10-3-1-9(2-4-10)5-19-15-12-16(21-7-20-15)23(8-22-12)17-14(26)13(25)11(6-24)27-17/h1-4,7-8,11,13-14,17,24-26H,5-6,18H2,(H,19,20,21)",372.3785,-5.575612796745,-0.7972935819650004,4.77831921478,5.290488678733752
000004397,OCC1OC(C(C1O)O)n1cnc2c1ncnc2NCCc1ccc(cc1)N,C18H22N6O4,"InChI=1S/C18H22N6O4/c19-11-3-1-10(2-4-11)5-6-20-16-13-17(22-8-21-16)24(9-23-13)18-15(27)14(26)12(7-25)28-18/h1-4,8-9,12,14-15,18,25-27H,5-7,19H2,(H,20,21,22)",386.40508,-5.281729838205,-0.8598797675799998,4.421850070625,3.0651289024667463
000004398,OCC1OC(C(C1O)O)n1cnc2c1ncnc2NCCc1ccccc1,C18H21N5O4,"InChI=1S/C18H21N5O4/c24-8-12-14(25)15(26)18(27-12)23-10-22-13-16(20-9-21-17(13)23)19-7-6-11-4-2-1-3-5-11/h1-5,9-10,12,14-15,18,24-26H,6-8H2,(H,19,20,21)",371.39044,-5.839563231730001,-0.9333505072149997,4.906212724515001,2.9099742168283895