mol_id,SMILES,formula,inchi,mass,HOMO(eV),LUMO(eV),GAP(eV),dipole_moment
000001511,COc1cccc(c1)c1nc2c([nH]1)cccc2C(=O)N,C15H13N3O2,"InChI=1S/C15H13N3O2/c1-20-10-5-2-4-9(8-10)15-17-12-7-3-6-11(14(16)19)13(12)18-15/h2-8H,1H3,(H2,16,19)(H,17,18)",267.28262,-5.986504711,-1.4122708840950002,4.574233826905,8.204407122716972
000001514,COc1cccc(c1)N1C=Cc2c(S1(=O)=O)sc(c2)S(=O)(=O)N,C13H12N2O5S3,"InChI=1S/C13H12N2O5S3/c1-20-11-4-2-3-10(8-11)15-6-5-9-7-12(22(14,16)17)21-13(9)23(15,18)19/h2-8H,1H3,(H2,14,16,17)",372.43978,-5.8232364007,-2.16058397297,3.66265242773,5.418231733053968
000001515,OCC1NC(C(C1O)O)c1ccc(cc1)N,C11H16N2O3,"InChI=1S/C11H16N2O3/c12-7-3-1-6(2-4-7)9-11(16)10(15)8(5-14)13-9/h1-4,8-11,13-16H,5,12H2",224.25634,-5.439555871495,0.005442277010000218,5.444998148505,4.675221162699044
000001520,CCCCNCCS,C6H15NS,"InChI=1S/C6H15NS/c1-2-3-4-7-5-6-8/h7-8H,2-6H2,1H3",133.255,-6.0953502512,0.9143025376800002,7.00965278888,2.4406585640572502
000001521,O=C(C(=O)O)Nc1sc2c(c1C(=O)O)CCSC2,C10H9NO5S2,"InChI=1S/C10H9NO5S2/c12-7(10(15)16)11-8-6(9(13)14)4-1-2-17-3-5(4)18-8/h1-3H2,(H,11,12)(H,13,14)(H,15,16)",287.31216,-6.217801483925,-2.56331247171,3.654489012215,3.882276749325066
000001522,OCCNc1ncnc2c1nc1n2cccc1,C11H11N5O,"InChI=1S/C11H11N5O/c17-6-4-12-10-9-11(14-7-13-10)16-5-2-1-3-8(16)15-9/h1-3,5,7,17H,4,6H2,(H,12,13,14)",229.23794,-5.521190026645,-1.5891448869199998,3.932045139725,3.493903192639716
000001523,OC(=O)CC(C(=O)O)(NCc1c(cnc(c1O)C)COP(=O)(O)O)C,C13H19N2O9P,"InChI=1S/C13H19N2O9P/c1-7-11(18)9(8(4-14-7)6-24-25(21,22)23)5-15-13(2,12(19)20)3-10(16)17/h4,15,18H,3,5-6H2,1-2H3,(H,16,17)(H,19,20)(H2,21,22,23)",378.271721,-6.03004292708,-0.9279082302050004,5.102134696875,4.832665111416991
000001526,O=C(Cn1c(ncc(c1=O)NS(=O)(=O)C)c1ccc(cc1)N)NC(C(=O)C(F)(F)F)C(C)C,C19H22F3N5O5S,"InChI=1S/C19H22F3N5O5S/c1-10(2)15(16(29)19(20,21)22)25-14(28)9-27-17(11-4-6-12(23)7-5-11)24-8-13(18(27)30)26-33(3,31)32/h4-8,10,15,26H,9,23H2,1-3H3,(H,25,28)",489.4686896,-5.630035566845,-1.5537700863549997,4.07626548049,6.140534799356893
000001527,CC(=O)NCC1NCC(C(C1O)O)O,C8H16N2O4,"InChI=1S/C8H16N2O4/c1-4(11)9-2-5-7(13)8(14)6(12)3-10-5/h5-8,10,12-14H,2-3H2,1H3,(H,9,11)",204.22364,-6.06813886615,0.4898049309000001,6.55794379705,3.8568901337451913
000001528,O=CC(C(C(C(COC1OC(CO)C(C(C1O)O)O)O)O)O)NC(=O)C,C14H25NO11,"InChI=1S/C14H25NO11/c1-5(18)15-6(2-16)9(20)10(21)7(19)4-25-14-13(24)12(23)11(22)8(3-17)26-14/h2,6-14,17,19-24H,3-4H2,1H3,(H,15,18)",383.3484,-6.44909825685,-1.4802993467199999,4.96879891013,3.6112329358161044
000001529,OCC1OC(O)C(C(C1O)OC1OC(CO)C(C(C1O)O)O)NC(=O)C,C14H25NO11,"InChI=1S/C14H25NO11/c1-4(18)15-7-12(9(20)6(3-17)24-13(7)23)26-14-11(22)10(21)8(19)5(2-16)25-14/h5-14,16-17,19-23H,2-3H2,1H3,(H,15,18)",383.3484,-6.67767389127,0.42449760678000015,7.102171498050001,4.055476576893276
000001530,Cn1c(N)nc2c1cc(cn2)c1ccccc1,C13H12N4,"InChI=1S/C13H12N4/c1-17-11-7-10(9-5-3-2-4-6-9)8-15-12(11)16-13(17)14/h2-8H,1H3,(H2,14,15,16)",224.26118,-5.62731442834,-0.786409027945,4.840905400395,5.620380495506421
000001531,OCC(CO)(N)C,C4H11NO2,"InChI=1S/C4H11NO2/c1-4(5,2-6)3-7/h6-7H,2-3,5H2,1H3",105.13564,-6.66134706024,1.4612513771849995,8.122598437425,2.136124266396035
000001532,O=c1cc(C)[nH]c(n1)N,C5H7N3O,"InChI=1S/C5H7N3O/c1-3-2-4(9)8-5(6)7-3/h2H,1H3,(H3,6,7,8,9)",125.12858,-6.16609985233,-0.47892037687999967,5.687179475450001,7.6690237210091485
000001533,Cc1ccnc(c1)N,C6H8N2,"InChI=1S/C6H8N2/c1-5-2-3-8-6(7)4-5/h2-4H,1H3,(H2,7,8)",108.14112,-5.61098759731,-0.20136424937000008,5.40962334794,2.1367010628183345
000001534,CC1CCN=C(S1)N,C5H10N2S,"InChI=1S/C5H10N2S/c1-4-2-3-7-5(6)8-4/h4H,2-3H2,1H3,(H2,6,7)",130.2113,-5.9919469880100005,0.7455919503699997,6.73753893838,1.469205250177796
000001535,Nc1ncc(s1)S(=O)(=O)c1ccc(cc1)[N+](=O)[O-],C9H7N3O4S2,"InChI=1S/C9H7N3O4S2/c10-9-11-5-8(17-9)18(15,16)7-3-1-6(2-4-7)12(13)14/h1-5H,(H2,10,11)",285.29958,-6.50352102695,-2.789166967625,3.7143540593249997,6.878739368548063
000001536,N#Cc1c(N)cccc1S(=O)(=O)c1cc(C)cc(c1)C,C15H14N2O2S,"InChI=1S/C15H14N2O2S/c1-10-6-11(2)8-12(7-10)20(18,19)15-5-3-4-14(17)13(15)9-16/h3-8H,17H2,1-2H3",286.34886,-6.29127222356,-1.7496920587150004,4.541580164845,7.481512053577939
000001538,Nc1ccccc1S(=O)(=O)N(CC1(C)OCCO1)C,C12H18N2O4S,"InChI=1S/C12H18N2O4S/c1-12(17-7-8-18-12)9-14(2)19(15,16)11-6-4-3-5-10(11)13/h3-6H,7-9,13H2,1-2H3",286.34732,-5.77425590761,-0.9360716457200002,4.8381842618899995,3.81388678956442
000001539,Nc1ccc2c(c1)Cc1c2cccc1,C13H11N,"InChI=1S/C13H11N/c14-11-5-6-13-10(8-11)7-9-3-1-2-4-12(9)13/h1-6,8H,7,14H2",181.23314,-4.9388663865749995,-0.3782382521949996,4.56062813438,2.331444831207035
000001540,C1CCC(CC1)COc1nc(Nc2ccccc2)nc2c1[nH]cn2,C18H21N5O,"InChI=1S/C18H21N5O/c1-3-7-13(8-4-1)11-24-17-15-16(20-12-19-15)22-18(23-17)21-14-9-5-2-6-10-14/h2,5-6,9-10,12-13H,1,3-4,7-8,11H2,(H2,19,20,21,22,23)",323.39224,-5.18648999053,-0.8762065986099996,4.3102833919200005,5.0342192882333805
000001541,CCCCCC=CCC=CCC=CCC=CCCCC(=O)OC(CO)CO,C23H38O4,"InChI=1S/C23H38O4/c1-2-3-4-5-6-7-8-9-10-11-12-13-14-15-16-17-18-19-23(26)27-22(20-24)21-25/h6-7,9-10,12-13,15-16,22,24-25H,2-5,8,11,14,17-21H2,1H3",378.54542,-6.245012868975,-0.07074960113000017,6.174263267845,3.866748935182371
000001543,Fc1ccc2c(c1)c(C(=O)O)c(c(n2)c1ccc(cc1)c1ccccc1)C,C23H16FNO2,"InChI=1S/C23H16FNO2/c1-14-21(23(26)27)19-13-18(24)11-12-20(19)25-22(14)17-9-7-16(8-10-17)15-5-3-2-4-6-15/h2-13H,1H3,(H,26,27)",357.3770432,-6.304877916085,-1.983709970145,4.32116794594,3.6248689435528565
000001545,OCC1OC(O)C(C(C1O)O)Cl,C6H11ClO5,"InChI=1S/C6H11ClO5/c7-3-5(10)4(9)2(1-8)12-6(3)11/h2-6,8-11H,1H2",198.60154,-7.066796697485,0.4489878533249998,7.515784550809999,1.6945995558266855
000001546,OCC1OC(CC1O)n1cnc2c1nc(Cl)nc2N,C10H12ClN5O3,"InChI=1S/C10H12ClN5O3/c11-10-14-8(12)7-9(15-10)16(3-13-7)6-1-4(18)5(2-17)19-6/h3-6,17-18H,1-2H2,(H2,12,14,15)",285.68698,-5.89398600183,-0.7347073963500002,5.15927860548,3.972005407533832
000001547,OCC1OC(C(C1O)O)n1cnc2c1nc(Cl)nc2NC1CCCC1,C15H20ClN5O4,"InChI=1S/C15H20ClN5O4/c16-15-19-12(18-7-3-1-2-4-7)9-13(20-15)21(6-17-9)14-11(24)10(23)8(5-22)25-14/h6-8,10-11,14,22-24H,1-5H2,(H,18,19,20)",369.8034,-5.896707140335001,-1.0285903548900004,4.868116785445,4.710310786516851
000001550,CC(C(C(=O)Nc1ccc(cc1)C(F)(F)F)C#N)O,C12H11F3N2O2,"InChI=1S/C12H11F3N2O2/c1-7(18)10(6-16)11(19)17-9-4-2-8(3-5-9)12(13,14)15/h2-5,7,10,18H,1H3,(H,17,19)",272.2231496,-6.530732412,-1.1973009422,5.3334314698,6.234190076430538
000001551,NCC(C1CCCCCCC1)O,C10H21NO,"InChI=1S/C10H21NO/c11-8-10(12)9-6-4-2-1-3-5-7-9/h9-10,12H,1-8,11H2",171.27984,-6.430050287315001,1.7333652276849998,8.163415515,2.57059112424944
000001553,OCC(C(C1OC(=CC(C1NC(=O)C)O)C(=O)O)O)O,C11H17NO8,"InChI=1S/C11H17NO8/c1-4(14)12-8-5(15)2-7(11(18)19)20-10(8)9(17)6(16)3-13/h2,5-6,8-10,13,15-17H,3H2,1H3,(H,12,14)(H,18,19)",291.25458,-6.821894232035,-1.096618817515,5.7252754145199996,7.481952403239745
000001554,OCC(C(C(C(COP(=O)(O)O)O)O)O)N,C6H16NO8P,"InChI=1S/C6H16NO8P/c7-3(1-8)5(10)6(11)4(9)2-15-16(12,13)14/h3-6,8-11H,1-2,7H2,(H2,12,13,14)",261.166901,-6.163378713825001,0.07347073963499984,6.2368494534600005,2.1905581615538083
000001559,CCOC(=O)CN(S(=O)(=O)c1ccc(cc1)C)c1ccccc1C(=O)OC,C19H21NO6S,"InChI=1S/C19H21NO6S/c1-4-26-18(21)13-20(17-8-6-5-7-16(17)19(22)25-3)27(23,24)15-11-9-14(2)10-12-15/h5-12H,4,13H2,1-3H3",391.43814,-6.103513666715,-1.249002573795,4.85451109292,3.679416378289769
000001560,CCCCCCCCCCCCCCC(C(=O)O)F,C16H31FO2,"InChI=1S/C16H31FO2/c1-2-3-4-5-6-7-8-9-10-11-12-13-14-15(17)16(18)19/h15H,2-14H2,1H3,(H,18,19)",274.4145432,-7.37972762556,0.010884554020000436,7.390612179580001,3.799505328183394
000001561,CCCCCCCc1cc(=O)c2c(n1O)cccc2,C16H21NO2,"InChI=1S/C16H21NO2/c1-2-3-4-5-6-9-13-12-16(18)14-10-7-8-11-15(14)17(13)19/h7-8,10-12,19H,2-6,9H2,1H3",259.34344,-5.962014464455,-1.2435602967849997,4.71845416767,5.177221421319162
000001562,ONC(=O)C(C(=O)O)CC(C)C,C7H13NO4,"InChI=1S/C7H13NO4/c1-4(2)3-5(7(10)11)6(9)8-12/h4-5,12H,3H2,1-2H3,(H,8,9)(H,10,11)",175.18242,-7.085844667020001,-0.7755244739250005,6.310320193095,4.761048809950283
000001563,CCCCCCCCCCCCC(C(=O)O)O,C14H28O3,"InChI=1S/C14H28O3/c1-2-3-4-5-6-7-8-9-10-11-12-13(15)14(16)17/h13,15H,2-12H2,1H3,(H,16,17)",244.37032,-6.979720265325001,0.29932523554999957,7.279045500875,4.5584508985464565
000001564,NCC(c1ccc(cc1)Cl)(CS(=O)(=O)O)O,C9H12ClNO4S,"InChI=1S/C9H12ClNO4S/c10-8-3-1-7(2-4-8)9(12,5-11)6-16(13,14)15/h1-4,12H,5-6,11H2,(H,13,14,15)",265.71388,-6.805567401005,-0.7401496733599995,6.065417727645,3.7401016604179356
000001565,NC1=NC2C(N1)CSC2CCCCC(=O)O,C10H17N3O2S,"InChI=1S/C10H17N3O2S/c11-10-12-6-5-16-7(9(6)13-10)3-1-2-4-8(14)15/h6-7,9H,1-5H2,(H,14,15)(H3,11,12,13)",243.32588,-5.9320819409,0.29932523555000046,6.23140717645,4.0617538648092655
000001567,OCCS,C2H6OS,"InChI=1S/C2H6OS/c3-1-2-4/h3-4H,1-2H2",78.13344,-6.5252901349900005,0.9904944158199998,7.51578455081,1.1617423990928455
000001570,S=c1ccccn1O,C5H5NOS,"InChI=1S/C5H5NOS/c7-6-4-2-1-3-5(6)8/h1-4,7H",127.1643,-5.684458336945,-1.6571733495450003,4.0272849874,4.723151352910152
000001573,COc1cc2c(cc1O)CCC1C2CCC2(C1CCC2O)C,C19H26O3,"InChI=1S/C19H26O3/c1-19-8-7-12-13(15(19)5-6-18(19)21)4-3-11-9-16(20)17(22-2)10-14(11)12/h9-10,12-13,15,18,20-21H,3-8H2,1-2H3",302.40794,-5.178326575015,0.21224880338999963,5.390575378405,3.658834267372601
000001574,Cc1c(CCN)c2c([nH]1)ccc(c2)O,C11H14N2O,"InChI=1S/C11H14N2O/c1-7-9(4-5-12)10-6-8(14)2-3-11(10)13-7/h2-3,6,13-14H,4-5,12H2,1H3",190.24166,-5.009615987705001,-0.07347073963499984,4.936145248070001,3.7581724093008293
000001576,CNC(C(=O)c1ccccc1)C,C10H13NO,"InChI=1S/C10H13NO/c1-8(11-2)10(12)9-6-4-3-5-7-9/h3-8,11H,1-2H3",163.21632,-6.0953502512,-1.096618817515,4.998731433685,2.495594984465428
000001580,CSc1nc(N)c2c(n1)n(cn2)C1OC(C(C1O)O)COP(=O)(OP(=O)(O)O)O,C11H17N5O10P2S,"InChI=1S/C11H17N5O10P2S/c1-29-11-14-8(12)5-9(15-11)16(3-13-5)10-7(18)6(17)4(25-10)2-24-28(22,23)26-27(19,20)21/h3-4,6-7,10,17-18H,2H2,1H3,(H,22,23)(H2,12,14,15)(H2,19,20,21)",473.292702,-5.853168924255001,-1.1374358950899994,4.715733029165001,6.202440514132239
000001583,O=C(N(c1ccccc1)c1ccccc1)Oc1ccc(cc1[N+](=O)[O-])C(=O)O,C20H14N2O6,"InChI=1S/C20H14N2O6/c23-19(24)14-11-12-18(17(13-14)22(26)27)28-20(25)21(15-7-3-1-4-8-15)16-9-5-2-6-10-16/h1-13H,(H,23,24)",378.33496,-6.321204747115,-2.5415433636699998,3.779661383445,5.2202908753320445
000001584,O=c1[nH]n(CCc2ccccc2)c(=O)c2c1cccc2,C16H14N2O2,"InChI=1S/C16H14N2O2/c19-15-13-8-4-5-9-14(13)16(20)18(17-15)11-10-12-6-2-1-3-7-12/h1-9H,10-11H2,(H,17,19)",266.29456,-5.842284370235,-1.6490099340300004,4.193274436205,0.6494155108441745
000001585,OCC1OC(C(C1O)O)n1cnc2c1nc(Nc1ccccc1)nc2N,C16H18N6O4,"InChI=1S/C16H18N6O4/c17-13-10-14(21-16(20-13)19-8-4-2-1-3-5-8)22(7-18-10)15-12(25)11(24)9(6-23)26-15/h1-5,7,9,11-12,15,23-25H,6H2,(H3,17,19,20,21)",358.35192,-5.298056669235001,-0.7047748727950003,4.59328179644,2.9066629367095524
000001588,OC(=O)CCCCC=CCC(C=CC=CC=CC(CCCC(=O)O)O)O,C20H30O6,"InChI=1S/C20H30O6/c21-17(11-6-2-1-3-9-15-19(23)24)12-7-4-5-8-13-18(22)14-10-16-20(25)26/h2,4-8,12-13,17-18,21-22H,1,3,9-11,14-16H2,(H,23,24)(H,25,26)",366.4486,-5.93752421791,-1.5456066708399998,4.39191754707,5.170543619030885
000001589,OCCCCCC=CCC(C=CC=CC=CC(CCCC(=O)O)O)O,C20H32O5,"InChI=1S/C20H32O5/c21-17-10-6-2-1-3-7-12-18(22)13-8-4-5-9-14-19(23)15-11-16-20(24)25/h3-5,7-9,13-14,18-19,21-23H,1-2,6,10-12,15-17H2,(H,24,25)",352.46508,-5.7688136305999995,-1.3741749450249996,4.394638685575,5.309254581968923
000001590,OC1CCC(=C)C(=CC=C2CCCC3(C2CCC3C(CCC(C(O)(C)C)O)C)C)C1,C27H44O3,"InChI=1S/C27H44O3/c1-18-8-12-22(28)17-21(18)11-10-20-7-6-16-27(5)23(13-14-24(20)27)19(2)9-15-25(29)26(3,4)30/h10-11,19,22-25,28-30H,1,6-9,12-17H2,2-5H3",416.63646,-5.32254691578,-0.5850447785749999,4.737502137205,3.420431060407445
000001593,OC1CCC(=C)C(=CC=C2CCCC3(C2CCC3C(CCCC(O)(C)C)C)C)C1,C27H44O2,"InChI=1S/C27H44O2/c1-19-10-13-23(28)18-22(19)12-11-21-9-7-17-27(5)24(14-15-25(21)27)20(2)8-6-16-26(3,4)29/h11-12,20,23-25,28-29H,1,6-10,13-18H2,2-5H3",400.63706,-5.37152740887,-0.6367464101699998,4.7347809987,2.0643425077222526
000001599,OCC1OC(C(C1N)O)n1cnc2c1ncnc2N(C)C,C12H18N6O3,"InChI=1S/C12H18N6O3/c1-17(2)10-8-11(15-4-14-10)18(5-16-8)12-9(20)7(13)6(3-19)21-12/h4-7,9,12,19-20H,3,13H2,1-2H3",294.30972,-5.71983313751,-0.7809667509349998,4.938866386575,3.37762150150398
000001600,[N-]=[N+]=NC1CC(OC1COP(=O)(O)O)n1cc(C)c(=O)[nH]c1=O,C10H14N5O7P,"InChI=1S/C10H14N5O7P/c1-5-3-15(10(17)12-9(5)16)8-2-6(13-14-11)7(22-8)4-21-23(18,19)20/h3,6-8H,2,4H2,1H3,(H,12,16,17)(H2,18,19,20)",347.221221,-6.37290637871,-1.2598871278150003,5.113019250894999,4.311003301700661
000001601,OC1CC(OC1n1cnc2c1ncnc2N)COP(=O)(OP(=O)(OP(=O)(O)O)O)O,C10H16N5O12P3,"InChI=1S/C10H16N5O12P3/c11-8-7-9(13-3-12-8)15(4-14-7)10-6(16)1-5(25-10)2-24-29(20,21)27-30(22,23)26-28(17,18)19/h3-6,10,16H,1-2H2,(H,20,21)(H,22,23)(H2,11,12,13)(H2,17,18,19)",491.181623,-6.1579364368150005,-1.0449171859200002,5.113019250895,4.157150476771439
000001604,COc1cccc(c1)N1CCc2c(S1(=O)=O)sc(c2)S(=O)(=O)N,C13H14N2O5S3,"InChI=1S/C13H14N2O5S3/c1-20-11-4-2-3-10(8-11)15-6-5-9-7-12(22(14,16)17)21-13(9)23(15,18)19/h2-4,7-8H,5-6H2,1H3,(H2,14,16,17)",374.45566,-5.62731442834,-2.125209172405,3.502105255935,6.261850000826034
000001605,CNC1CC2OC(C1OC)(C)n1c3c4n2c2ccc(cc2c4c2c(c3c3c1c(O)ccc3)CNC2=O)O,C28H26N4O5,"InChI=1S/C28H26N4O5/c1-28-26(36-3)16(29-2)10-19(37-28)31-17-8-7-12(33)9-14(17)21-22-15(11-30-27(22)35)20-13-5-4-6-18(34)23(13)32(28)25(20)24(21)31/h4-9,16,19,26,29,33-34H,10-11H2,1-3H3,(H,30,35)",498.52984,-4.781040353285,-0.99593669283,3.7851036604550004,8.220957242133121
000001606,NCCN(N(N=O)O)CCN,C4H13N5O2,"InChI=1S/C4H13N5O2/c5-1-3-8(4-2-6)9(11)7-10/h11H,1-6H2",163.17832,-5.793303877145,-0.49252606940499977,5.30077780774,6.1181580517901795
000001608,NCc1ccc(c(c1)Cl)Cl,C7H7Cl2N,"InChI=1S/C7H7Cl2N/c8-6-2-1-5(4-10)3-7(6)9/h1-3H,4,10H2",176.04318,-6.500799888445,-0.6013716096049997,5.89942827884,3.898918070802976
000001609,Clc1oc(=O)c2c(c1Cl)cccc2,C9H4Cl2O2,InChI=1S/C9H4Cl2O2/c10-7-5-3-1-2-4-6(5)9(12)13-8(7)11/h1-4H,215.03286,-6.364742963195,-2.0163636322050005,4.348379330989999,4.139406789597997
000001610,OCC1OC(C(C1O)O)N1C=CCNC1=O,C9H14N2O5,"InChI=1S/C9H14N2O5/c12-4-5-6(13)7(14)8(16-5)11-3-1-2-10-9(11)15/h1,3,5-8,12-14H,2,4H2,(H,10,15)",230.21786,-5.9348030794049995,-0.09251870917000016,5.842284370234999,3.1844358874048635
000001611,OC1CN(Cc2cccs2)S(=O)(=O)c2c1cc(s2)S(=O)(=O)N,C11H12N2O5S4,"InChI=1S/C11H12N2O5S4/c12-21(15,16)10-4-8-9(14)6-13(5-7-2-1-3-19-7)22(17,18)11(8)20-10/h1-4,9,14H,5-6H2,(H2,12,15,16)",380.48338,-6.4463771183450005,-2.1986799120400002,4.247697206305,5.330818982559153
000001612,COc1ccc(cc1)N1CC(O)c2c(S1(=O)=O)sc(c2)S(=O)(=O)N,C13H14N2O6S3,"InChI=1S/C13H14N2O6S3/c1-21-9-4-2-8(3-5-9)15-7-11(16)10-6-12(23(14,17)18)22-13(10)24(15,19)20/h2-6,11,16H,7H2,1H3,(H2,14,17,18)",390.45506,-6.196032375885,-2.06262298679,4.133409389095,5.389066571453353
000001613,OC(=O)Cc1nn(Cc2nc3c(s2)ccc(c3)C(F)(F)F)c(=O)c2c1cccc2,C19H12F3N3O3S,"InChI=1S/C19H12F3N3O3S/c20-19(21,22)10-5-6-15-14(7-10)23-16(29-15)9-25-18(28)12-4-2-1-3-11(12)13(24-25)8-17(26)27/h1-7H,8-9H2,(H,26,27)",419.3770896,-6.51440558097,-2.136093726425,4.378311854545,4.5487139064740045
000001614,CC(Cc1ccc2c(c1)OCO2)N,C10H13NO2,"InChI=1S/C10H13NO2/c1-7(11)4-8-2-3-9-10(5-8)13-6-12-9/h2-3,5,7H,4,6,11H2,1H3",179.21572,-5.390575378405,0.09796098618000038,5.488536364585,1.3118306773170079
000001615,CNC(Cc1ccc2c(c1)OCO2)C,C11H15NO2,"InChI=1S/C11H15NO2/c1-8(12-2)5-9-3-4-10-11(6-9)14-7-13-10/h3-4,6,8,12H,5,7H2,1-2H3",193.2423,-5.374248547375,0.1387780637549998,5.51302661113,1.1293863469880447
000001616,Nc1cc(N)c2c(c1)c(=O)[nH][nH]c2=O,C8H8N4O2,"InChI=1S/C8H8N4O2/c9-3-1-4-6(5(10)2-3)8(14)12-11-7(4)13/h1-2H,9-10H2,(H,11,13)(H,12,14)",192.17472,-5.444998148505,-1.1700895571499998,4.2749085913550005,3.486369808398128
000001618,O=c1[nH]c(=O)n(cc1C)C1CC(C(O1)COP(=O)(O)O)OP(=O)(O)O,C10H16N2O11P2,"InChI=1S/C10H16N2O11P2/c1-5-3-12(10(14)11-9(5)13)8-2-6(23-25(18,19)20)7(22-8)4-21-24(15,16)17/h3,6-8H,2,4H2,1H3,(H,11,13,14)(H2,15,16,17)(H2,18,19,20)",402.188362,-6.381069794225,-1.2326757427650001,5.1483940514599995,5.373948544895178
000001620,NCCNC(=O)C(NC(=O)C(C(C)(C)C)NC(=O)C(CC(=O)NO)CC(C)C)C,C19H37N5O5,"InChI=1S/C19H37N5O5/c1-11(2)9-13(10-14(25)24-29)17(27)23-15(19(4,5)6)18(28)22-12(3)16(26)21-8-7-20/h11-13,15,29H,7-10,20H2,1-6H3,(H,21,26)(H,22,28)(H,23,27)(H,24,25)",415.52758,-6.13888846728,-0.6966114572800004,5.44227701,5.753323870931133
000001621,OC(=O)CCCCCC(C(N)C)CC(=O)O,C11H21NO4,"InChI=1S/C11H21NO4/c1-8(12)9(7-11(15)16)5-3-2-4-6-10(13)14/h8-9H,2-7,12H2,1H3,(H,13,14)(H,15,16)",231.28874,-6.44909825685,0.021769108039999985,6.47086736489,6.019217266774227
000001625,NCCCN(N(N=O)O)C(C)C,C6H16N4O2,"InChI=1S/C6H16N4O2/c1-6(2)9(5-3-4-7)10(12)8-11/h6,12H,3-5,7H2,1-2H3",176.21684,-5.401459932425,-0.13333578674499957,5.268124145680001,6.731872704607984
000001626,CCCCN(CCCN)CCCC,C11H26N2,"InChI=1S/C11H26N2/c1-3-5-9-13(10-6-4-2)11-7-8-12/h3-12H2,1-2H3",186.33754,-5.695342890965001,2.2558238206449994,7.95116671161,1.1594506057758562
000001627,OCc1c2C(=O)C(=CC(=O)c2n(c1c1ccccc1)C)N1CC1C,C19H18N2O3,"InChI=1S/C19H18N2O3/c1-11-9-21(11)14-8-15(23)18-16(19(14)24)13(10-22)17(20(18)2)12-6-4-3-5-7-12/h3-8,11,22H,9-10H2,1-2H3",322.35782,-5.8259575392050005,-2.674879150415,3.1510783887900007,2.536838132977743
000001628,OC(=O)C(=O)Nc1cc2ccccc2cc1C(=O)O,C13H9NO5,"InChI=1S/C13H9NO5/c15-11(13(18)19)14-10-6-8-4-2-1-3-7(8)5-9(10)12(16)17/h1-6H,(H,14,15)(H,16,17)(H,18,19)",259.21426,-6.174263267845,-2.005479078185,4.16878418966,3.471347099407664
000001629,OC(=O)c1ncccc1CP(=O)(O)O,C7H8NO5P,"InChI=1S/C7H8NO5P/c9-7(10)6-5(2-1-3-8-6)4-14(11,12)13/h1-3H,4H2,(H,9,10)(H2,11,12,13)",217.115881,-7.485852027255,-2.179631942505,5.3062200847500005,4.224401665617629
000001630,C=CCS(=O)CC=CS,C6H10OS2,"InChI=1S/C6H10OS2/c1-2-5-9(7)6-3-4-8/h2-4,8H,1,5-6H2",162.273,-5.92663966389,-0.5115740389400001,5.4150656249499995,3.2188382118077943
000001631,O=C(C(c1ccccc1)NC(=O)c1cccc(c1)C(=N)N)N1CCC(CC1)C(=O)c1ccccc1,C28H28N4O3,"InChI=1S/C28H28N4O3/c29-26(30)22-12-7-13-23(18-22)27(34)31-24(19-8-3-1-4-9-19)28(35)32-16-14-21(15-17-32)25(33)20-10-5-2-6-11-20/h1-13,18,21,24H,14-17H2,(H3,29,30)(H,31,34)",468.54692,-6.18242668336,-1.4748570697100005,4.70756961365,4.4886513993481385
000001633,O=CN1CCN(CC1)c1ccc(cc1)CC1C(=O)Nc2c1cccc2,C20H21N3O2,"InChI=1S/C20H21N3O2/c24-14-22-9-11-23(12-10-22)16-7-5-15(6-8-16)13-18-17-3-1-2-4-19(17)21-20(18)25/h1-8,14,18H,9-13H2,(H,21,25)",335.39964,-5.368806270365,-0.454430130335,4.91437614003,4.347919443835408
000001636,CNS(=O)(=O)Nc1ccc(n(c1=O)CC(=O)NC(C(=O)C(F)(F)F)C(C)C)c1ccccc1,C20H23F3N4O5S,"InChI=1S/C20H23F3N4O5S/c1-12(2)17(18(29)20(21,22)23)25-16(28)11-27-15(13-7-5-4-6-8-13)10-9-14(19(27)30)26-33(31,32)24-3/h4-10,12,17,24,26H,11H2,1-3H3,(H,25,28)",488.4806296,-5.776977046114999,-1.61635627197,4.160620774144999,6.445906739427433
000001638,ClC1CCC2(C(C1)C(=O)CC1C2CC2C1CCC1C2CN2CC(C)CCC2C1(C)O)C,C27H42ClNO2,"InChI=1S/C27H42ClNO2/c1-15-4-7-25-27(3,31)21-6-5-17-18(20(21)14-29(25)13-15)11-22-19(17)12-24(30)23-10-16(28)8-9-26(22,23)2/h15-23,25,31H,4-14H2,1-3H3",448.08088,-6.010994957545001,-0.5741602245550004,5.43683473299,5.248693901578182
000001639,Nc1ncn[nH]1,C2H4N4,"InChI=1S/C2H4N4/c3-2-4-1-5-6-2/h1H,(H3,3,4,5,6)",84.07996,-6.342973855155,0.18503741834000031,6.528011273495,3.017656350387996
000001640,ClCC(=O)C(Cc1ccccc1)N,C10H12ClNO,"InChI=1S/C10H12ClNO/c11-7-10(13)9(12)6-8-4-2-1-3-5-8/h1-5,9H,6-7,12H2",197.66138,-6.353858409175,-1.1347147565849998,5.219143652590001,1.949393240592826
000001641,NCC(c1ccc(cc1)Cl)CP(=O)(O)O,C9H13ClNO3P,"InChI=1S/C9H13ClNO3P/c10-9-3-1-7(2-4-9)8(5-11)6-15(12,13)14/h1-4,8H,5-6,11H2,(H2,12,13,14)",249.631181,-6.473588503395,-0.43810329930500025,6.0354852040899996,2.2117308193516676
000001642,O=CC1CCN2N1C(=O)C(CC2)(N)Cc1ccccc1,C15H19N3O2,"InChI=1S/C15H19N3O2/c16-15(10-12-4-2-1-3-5-12)7-9-17-8-6-13(11-19)18(17)14(15)20/h1-5,11,13H,6-10,16H2",273.33026,-5.466767256545,-0.7401496733600004,4.726617583185,4.762247574457464