mol_id,SMILES,formula,inchi,mass,HOMO(eV),LUMO(eV),GAP(eV),dipole_moment
000005935,ClCCN(CCCl)C.Cl,C5H12Cl3N,"InChI=1S/C5H11Cl2N.ClH/c1-8(4-2-6)5-3-7;/h2-5H2,1H3;1H",192.51448,-6.664068198745,0.08435529365500027,6.748423492400001,3.7218657692895105
000005936,CC(OP(=O)(OC(C)C)F)C,C6H14FO3P,"InChI=1S/C6H14FO3P/c1-5(2)9-11(7,8)10-6(3)4/h5-6H,1-4H3",184.1457242,-8.19062690005,1.28437737436,9.47500427441,3.9608526398968693
000005937,CC(OS(=O)(=O)C)CCC(OS(=O)(=O)C)C,C8H18O6S2,"InChI=1S/C8H18O6S2/c1-7(13-15(3,9)10)5-6-8(2)14-16(4,11)12/h7-8H,5-6H2,1-4H3",274.35492,-7.69537969214,0.6095350251200005,8.30491471726,1.4008237898907916
000005939,NC(=NC(=N)N)N,C2H7N5,"InChI=1S/C2H7N5/c3-1(4)7-2(5)6/h(H7,3,4,5,6,7)",101.11048,-5.8259575392050005,0.23673904993500017,6.062696589140001,4.326334594570096
000005941,NCCSSCCN.Cl.Cl,C4H14Cl2N2S2,InChI=1S/C4H12N2S2.2ClH/c5-1-3-7-8-4-2-6;;/h1-6H2;2*1H,225.20336,-6.326647024125,-0.5251797314650002,5.80146729266,5.41543547218827
000005942,NCCCNCCCN,C6H17N3,"InChI=1S/C6H17N3/c7-3-1-5-9-6-2-4-8/h9H,1-8H2",131.21928,-5.864053478275,2.3129677292500013,8.177021207525002,1.4750769146163192
000005943,ClC(Cl)(Cl)Cl,CCl4,"InChI=1S/CCl4/c2-1(3,4)5",153.8227,-8.737575739555,-1.5211164242950002,7.21645931526,7.435724578008521e-05
000005944,O=C1OC(=O)[C@@]2([C@@]1(C)[C@H]1CC[C@@H]2O1)C,C10H12O4,"InChI=1S/C10H12O4/c1-9-5-3-4-6(13-5)10(9,2)8(12)14-7(9)11/h5-6H,3-4H2,1-2H3/t5-,6+,9+,10-",196.19988,-7.458640642205,-0.6666789337249996,6.791961708480001,6.238967258008412
000005946,CC[N+](CC)(CC)CC.[Cl-],C8H20ClN,"InChI=1S/C8H20N.ClH/c1-5-9(6-2,7-3)8-4;/h5-8H2,1-4H3;1H/q+1;/p-1",165.7041,-4.65314684355,1.3469635599750003,6.000110403525,10.575970471614838
000005950,C[C@@H](C(=O)O)N,C3H7NO2,"InChI=1S/C3H7NO2/c1-2(4)3(5)6/h2H,4H2,1H3,(H,5,6)/t2-/m0/s1",89.09318,-6.881759279145,0.25034474246000027,7.1321040216050005,5.072030013748145
000005951,OC[C@@H](C(=O)O)N,C3H7NO3,"InChI=1S/C3H7NO3/c4-2(1-5)3(6)7/h2,5H,1,4H2,(H,6,7)/t2-/m0/s1",105.09258,-6.876317002135,0.12789350973500024,7.00421051187,4.056146874218808
000005952,CC(=O)OCC(=O)[C@H]1CC[C@@H]2[C@]1(C)CC[C@H]1[C@H]2CCC2=CC(=O)CC[C@]12C,C23H32O4,"InChI=1S/C23H32O4/c1-14(24)27-13-21(26)20-7-6-18-17-5-4-15-12-16(25)8-10-22(15,2)19(17)9-11-23(18,20)3/h12,17-20H,4-11,13H2,1-3H3/t17-,18-,19-,20+,22-,23-/m0/s1",372.49778,-6.21508034542,-1.0585228784450003,5.156557466974999,3.718375899804376
000005953,C=C[C@H]1CN2CCC1C[C@@H]2[C@H](c1ccnc2c1cc(OC)cc2)O,C20H24N2O2,"InChI=1S/C20H24N2O2/c1-3-13-12-22-9-7-14(13)10-19(22)20(23)16-6-8-21-18-5-4-15(24-2)11-17(16)18/h3-6,8,11,13-14,19-20,23H,1,7,9-10,12H2,2H3/t13-,14?,19+,20-/m0/s1",324.41676,-5.526632303655,-1.3115887594100002,4.215043544245,1.7689195564230726
000005954,c1ccc2c(c1)cc1c(c2)ccc2c1cccc2,C18H12,InChI=1S/C18H12/c1-2-7-15-12-18-16(11-14(15)6-1)10-9-13-5-3-4-8-17(13)18/h1-12H,228.28788,-5.363363993355,-1.5047895932650004,3.8585744000899993,0.05860300969233577
000005955,[O-][N+](=O)c1cc[n+](c2c1cccc2)[O-],C9H6N2O3,InChI=1S/C9H6N2O3/c12-10-6-5-9(11(13)14)7-3-1-2-4-8(7)10/h1-6H,190.15554,-6.38923320974,-2.9850889399850002,3.404144269755,2.283785992805149
000005958,OC1O[C@H](COP(=O)(O)O)[C@H]([C@@H]([C@H]1O)O)O,C6H13O9P,"InChI=1S/C6H13O9P/c7-3-2(1-14-16(11,12)13)15-6(10)5(9)4(3)8/h2-10H,1H2,(H2,11,12,13)/t2-,3-,4+,5-,6?/m1/s1",260.135781,-6.960672295790001,0.5877659170800005,7.548438212870002,5.007763236106615
000005959,OC[C@H]([C@@H](c1ccc(cc1)[N+](=O)[O-])O)NC(=O)C(Cl)Cl,C11H12Cl2N2O5,"InChI=1S/C11H12Cl2N2O5/c12-10(13)11(18)14-8(5-16)9(17)6-1-3-7(4-2-6)15(19)20/h1-4,8-10,16-17H,5H2,(H,14,18)/t8-,9-/m1/s1",323.12938,-7.142988575625,-2.4136498539349995,4.7293387216900005,3.801433348038737
000005960,OC(=O)C[C@@H](C(=O)O)N,C4H7NO4,"InChI=1S/C4H7NO4/c5-2(4(8)9)1-3(6)7/h2H,1,5H2,(H,6,7)(H,8,9)/t2-/m0/s1",133.10268,-6.778356015955,-0.7401496733599995,6.038206342595,6.089837541859716
000005961,NC(=O)CC[C@@H](C(=O)O)N,C5H10N2O3,"InChI=1S/C5H10N2O3/c6-3(5(9)10)1-2-4(7)8/h3H,1-2,6H2,(H2,7,8)(H,9,10)/t3-/m0/s1",146.1445,-6.62869339818,0.3782382521949996,7.006931650375,3.6469415927383593
000005962,NCCCC[C@@H](C(=O)O)N,C6H14N2O2,"InChI=1S/C6H14N2O2/c7-4-2-1-3-5(8)6(9)10/h5H,1-4,7-8H2,(H,9,10)/t5-/m0/s1",146.18756,-6.128003913260001,0.24762360395499972,6.375627517215,5.131369982398366
000005963,C[N+](Cc1ccccc1)(C)C.[Cl-],C10H16ClN,"InChI=1S/C10H16N.ClH/c1-11(2,3)9-10-7-5-4-6-8-10;/h4-8H,9H2,1-3H3;1H/q+1;/p-1",185.69374,-4.887164754980001,-0.7020537342899997,4.185111020690001,9.644924257606899
000005970,OC(C[N+](C)(C)C)CC(=O)O.[Cl-],C7H16ClNO3,"InChI=1S/C7H15NO3.ClH/c1-8(2,3)5-6(9)4-7(10)11;/h6,9H,4-5H2,1-3H3;1H",197.65984,-6.021879511565,0.4680358228600001,6.4899153344250005,12.7759953990187
000005971,C=CCN=C=S,C4H5NS,"InChI=1S/C4H5NS/c1-2-3-5-4-6/h2H,1,3H2",99.1542,-6.615087705655,-0.41905532976999993,6.196032375885,3.812662888942058
000005976,CN(N)C,C2H8N2,"InChI=1S/C2H8N2/c1-4(2)3/h3H2,1-2H3",60.09832,-5.907591694355,2.127930310910001,8.035522005265001,1.5286528862122362
000005977,CC(C(Cl)(Cl)Cl)(O)C,C4H7Cl3O,"InChI=1S/C4H7Cl3O/c1-3(2,8)4(5,6)7/h8H,1-2H3",177.45678,-7.66816830709,-0.4081707757500004,7.25999753134,3.440198099531334
000005979,O=C1CC2OCC=C3[C@H]4[C@@H]2C2N1c1ccccc1[C@]12CCN([C@H]1C4)C3,C21H22N2O2,"InChI=1S/C21H22N2O2/c24-18-10-16-19-13-9-17-21(6-7-22(17)11-12(13)5-8-25-16)14-3-1-2-4-15(14)23(18)20(19)21/h1-5,13,16-17,19-20H,6-11H2/t13-,16?,17-,19-,20?,21+/m0/s1",334.41158,-5.80146729266,-0.1523837562799999,5.64908353638,3.2411602993258453
000005983,CNC(=O)Oc1ccc2c(c1)[C@]1(C)CCN([C@@H]1N2C)C,C15H21N3O2,"InChI=1S/C15H21N3O2/c1-15-7-8-17(3)13(15)18(4)12-6-5-10(9-11(12)15)20-14(19)16-2/h5-6,9,13H,7-8H2,1-4H3,(H,16,19)/t13-,15+/m1/s1",275.34614,-4.81097287684,0.1523837562799999,4.96335663312,3.4376144580172165
000005984,OC[C@H]([C@H]([C@@H](C(=O)CO)O)O)O,C6H12O6,"InChI=1S/C6H12O6/c7-1-3(9)5(11)6(12)4(10)2-8/h3,5-9,11-12H,1-2H2/t3-,5-,6-/m1/s1",180.15588,-6.89536497167,-1.1864163881799996,5.708948583490001,1.6101241856378656
000005985,NS(=O)(=O)O.CCOC(=O)N(c1ccccc1)C(CN1CCC(CC1)(O)c1ccccc1)C,C23H33N3O6S,"InChI=1S/C23H30N2O3.H3NO3S/c1-3-28-22(26)25(21-12-8-5-9-13-21)19(2)18-24-16-14-23(27,15-17-24)20-10-6-4-7-11-20;1-5(2,3)4/h4-13,19,27H,3,14-18H2,1-2H3;(H3,1,2,3,4)",479.58962,-5.91575510987,-0.46531468435500045,5.450440425515,5.0233614391857175
000005986,CCOC(=O)N(c1ccccc1)C(CN1CCC(CC1)(O)c1ccccc1)C,C23H30N2O3,"InChI=1S/C23H30N2O3/c1-3-28-22(26)25(21-12-8-5-9-13-21)19(2)18-24-16-14-23(27,15-17-24)20-10-6-4-7-11-20/h4-13,19,27H,3,14-18H2,1-2H3",382.4959,-5.679016059935,-0.144220340765,5.53479571917,2.3623384479663367
000005987,NS(=O)(=O)O,H3NO3S,"InChI=1S/H3NO3S/c1-5(2,3)4/h(H3,1,2,3,4)",97.09372,-8.141646406960001,0.4000073602349996,8.541653767195001,3.5070494928314027
000005988,OC[C@H]1O[C@@]([C@H]([C@@H]1O)O)(CO)O[C@H]1O[C@H](CO)[C@H]([C@@H]([C@H]1O)O)O,C12H22O11,"InChI=1S/C12H22O11/c13-1-4-6(16)8(18)9(19)11(21-4)23-12(3-15)10(20)7(17)5(2-14)22-12/h4-11,13-20H,1-3H2/t4-,5-,6-,7-,8+,9-,10+,11-,12+/m1/s1",342.29648,-6.936182049245001,0.9632830307699995,7.899465080015,1.3025374100719718
000005993,ClC1CC2C(C1Cl)C1(C(C2(Cl)C(=C1Cl)Cl)(Cl)Cl)Cl,C10H6Cl8,"InChI=1S/C10H6Cl8/c11-3-1-2-4(5(3)12)9(16)7(14)6(13)8(2,15)10(9,17)18/h2-5H,1H2",409.77864,-7.050469866455,-1.2816562358550003,5.7688136305999995,3.141438909571536
000005994,O=C1CC[C@]2(C(=C1)CC[C@@H]1[C@@H]2CC[C@]2([C@H]1CC[C@@H]2C(=O)C)C)C,C21H30O2,"InChI=1S/C21H30O2/c1-13(22)17-6-7-18-16-5-4-14-12-15(23)8-10-20(14,2)19(16)9-11-21(17,18)3/h12,16-19H,4-11H2,1-3H3/t16-,17+,18-,19-,20-,21+/m0/s1",314.4617,-6.171542129340001,-1.01770580087,5.153836328470001,5.236335707306495
000005995,CCC(=O)O[C@H]1CC[C@@H]2[C@]1(C)CC[C@H]1[C@H]2CCC2=CC(=O)CC[C@]12C,C22H32O3,"InChI=1S/C22H32O3/c1-4-20(24)25-19-8-7-17-16-6-5-14-13-15(23)9-11-21(14,2)18(16)10-12-22(17,19)3/h13,16-19H,4-12H2,1-3H3/t16-,17-,18-,19-,21-,22-/m0/s1",344.48768,-6.168820990835,-1.0149846623650003,5.15383632847,5.6578943300326845
000005997,CC(CCC[C@H]([C@H]1CC[C@@H]2[C@]1(C)CC[C@H]1[C@H]2CC=C2[C@]1(C)CC[C@@H](C2)O)C)C,C27H46O,"InChI=1S/C27H46O/c1-18(2)7-6-8-19(3)23-11-12-24-22-10-9-20-17-21(28)13-15-26(20,4)25(22)14-16-27(23,24)5/h9,18-19,21-25,28H,6-8,10-17H2,1-5H3/t19-,21+,22+,23-,24+,25+,26+,27-/m1/s1",386.65354,-6.1579364368150005,0.7918513049550002,6.949787741770001,2.0716555287520655
000006001,Cc1c2ccc3c(c2c(c2c1cccc2)C)cccc3,C20H16,"InChI=1S/C20H16/c1-13-16-8-5-6-9-17(16)14(2)20-18(13)12-11-15-7-3-4-10-19(15)20/h3-12H,1-2H3",256.34104,-5.145672912955,-1.47485706971,3.6708158432449998,0.15219137927294044
000006002,CC[N+](CC(N1c2ccccc2Sc2c1cccc2)C)(C)C.CCOS(=O)(=O)[O-],C21H30N2O4S2,"InChI=1S/C19H25N2S.C2H6O4S/c1-5-21(3,4)14-15(2)20-16-10-6-8-12-18(16)22-19-13-9-7-11-17(19)20;1-2-6-7(3,4)5/h6-13,15H,5,14H2,1-4H3;2H2,1H3,(H,3,4,5)/q+1;/p-1",438.6039,-5.05587534229,-0.4952472079100003,4.56062813438,9.724382796301418
000006004,CCOS(=O)(=O)O,C2H6O4S,"InChI=1S/C2H6O4S/c1-2-6-7(3,4)5/h2H2,1H3,(H,3,4,5)",126.13164,-8.58247084477,0.19864311086499953,8.781113955635,3.152201488423924
000006005,CN1CCc2c3[C@H]1Cc1ccc(c(c1c3ccc2)O)O,C17H17NO2,"InChI=1S/C17H17NO2/c1-18-8-7-10-3-2-4-12-15(10)13(18)9-11-5-6-14(19)17(20)16(11)12/h2-6,13,19-20H,7-9H2,1H3/t13-/m1/s1",267.32238,-5.368806270365,-0.8462740750549997,4.52253219531,2.497845204575335
000006006,O=CN1C(CNc2ccc(cc2)C(=O)N[C@H](C(=O)O)CCC(=O)O)CNc2c1c(=O)nc([nH]2)N,C20H23N7O7,"InChI=1S/C20H23N7O7/c21-20-25-16-15(18(32)26-20)27(9-28)12(8-23-16)7-22-11-3-1-10(2-4-11)17(31)24-13(19(33)34)5-6-14(29)30/h1-4,9,12-13,22H,5-8H2,(H,24,31)(H,29,30)(H,33,34)(H4,21,23,25,26,32)/t12?,13-/m0/s1",473.43932,-5.2790086997,-0.7156594268149998,4.5633492728850005,11.625653686467054
000006007,CCN(CCSC(=O)N(c1ccccc1)c1ccccc1)CC.Cl,C19H25ClN2OS,"InChI=1S/C19H24N2OS.ClH/c1-3-20(4-2)15-16-23-19(22)21(17-11-7-5-8-12-17)18-13-9-6-10-14-18;/h5-14H,3-4,15-16H2,1-2H3;1H",364.9326,-5.43139245598,-0.8163415514999999,4.61505090448,4.578158939757662