mol_id,SMILES,formula,inchi,mass,HOMO(eV),LUMO(eV),GAP(eV),dipole_moment
000002196,COc1ccc(cc1)C(=O)N1CCCC1=O,C12H13NO3,"InChI=1S/C12H13NO3/c1-16-10-6-4-9(5-7-10)12(15)13-8-2-3-11(13)14/h4-7H,2-3,8H2,1H3",219.23652,-5.888543724820001,-0.9932155543250003,4.8953281704950005,2.7340759331653537
000002197,COc1ccc(cc1)C1C(=O)c2c(C1=O)cccc2,C16H12O3,"InChI=1S/C16H12O3/c1-19-11-8-6-10(7-9-11)14-15(17)12-4-2-3-5-13(12)16(14)18/h2-9,14H,1H3",252.26468,-5.6463623978749995,-2.146978280445,3.4993841174299996,3.0701261379288636
000002198,OCC(c1ccccc1)C(=O)OC1CC2CC(C(C1)N2C)O,C17H23NO4,"InChI=1S/C17H23NO4/c1-18-12-7-13(9-15(18)16(20)8-12)22-17(21)14(10-19)11-5-3-2-4-6-11/h2-6,12-16,19-20H,7-10H2,1H3",305.36882,-5.820515262195,-0.5687179475450002,5.25179731465,2.8170977613732187
000002199,COc1ccc(cc1)CC1NCC(C1OC(=O)C)O,C14H19NO4,"InChI=1S/C14H19NO4/c1-9(16)19-14-12(15-8-13(14)17)7-10-3-5-11(18-2)6-4-10/h3-6,12-15,17H,7-8H2,1-2H3",265.30496,-5.668131505915,-0.1251723712299997,5.542959134685001,2.9643327755221747
000002200,c1ccc(cc1)CN(c1ccccc1)CC1=NCCN1,C17H19N3,"InChI=1S/C17H19N3/c1-3-7-15(8-4-1)13-20(14-17-18-11-12-19-17)16-9-5-2-6-10-16/h1-10H,11-14H2,(H,18,19)",265.35286,-5.325268054285001,-0.4816415153850002,4.843626538900001,2.202683832738144
000002201,OC(=O)c1c2ccccc2cc2c1cccc2,C15H10O2,"InChI=1S/C15H10O2/c16-15(17)14-12-7-3-1-5-10(12)9-11-6-2-4-8-13(11)14/h1-9H,(H,16,17)",222.2387,-5.67629492143,-2.054459571275,3.6218353501550005,4.573653512289491
000002202,Oc1cccc2c1C(=O)c1c(C2)cccc1O,C14H10O3,"InChI=1S/C14H10O3/c15-10-5-1-3-8-7-9-4-2-6-11(16)13(9)14(17)12(8)10/h1-6,15-16H,7H2",226.2274,-5.7171119990050006,-1.651731072535,4.0653809264700005,4.542086032476047
000002203,COc1cc(cc(c1OC)OC)C1C2C(=O)OCC2Cc2c1cc1OCOc1c2,C22H22O7,"InChI=1S/C22H22O7/c1-24-17-6-12(7-18(25-2)21(17)26-3)19-14-8-16-15(28-10-29-16)5-11(14)4-13-9-27-22(23)20(13)19/h5-8,13,19-20H,4,9-10H2,1-3H3",398.40588,-5.477651810565001,-0.33470003611499966,5.142951774450001,6.691030040392062
000002206,O=c1cc(n(n1c1ccccc1)C)C,C11H12N2O,"InChI=1S/C11H12N2O/c1-9-8-11(14)13(12(9)2)10-6-4-3-5-7-10/h3-8H,1-2H3",188.22578,-5.58921848927,-0.7537553658849996,4.835463123385001,4.879065020354412
000002207,OC(=O)C(CCP(=O)(O)O)N,C4H10NO5P,"InChI=1S/C4H10NO5P/c5-3(4(6)7)1-2-11(8,9)10/h3H,1-2,5H2,(H,6,7)(H2,8,9,10)",183.099661,-6.892643833165001,-0.027211385050000203,6.865432448115,2.1658311239930503
000002209,NSC(=S)N1CCCC1,C5H10N2S2,"InChI=1S/C5H10N2S2/c6-9-5(8)7-3-1-2-4-7/h1-4,6H2",162.2763,-5.537516857675,-0.4489878533249998,5.08852900435,6.086997324364534
000002210,OCC1(O)CCC23CC1CC2CCC1C3(C)CCC(C1(C)CO)O,C20H34O4,"InChI=1S/C20H34O4/c1-17(11-21)15-4-3-13-9-14-10-19(13,7-8-20(14,24)12-22)18(15,2)6-5-16(17)23/h13-16,21-24H,3-12H2,1-2H3",338.48156,-6.430050287315001,1.3905017760550002,7.820552063370001,0.4709594822179505
000002211,CCCCC#CCSc1ccccc1OC(=O)C,C15H18O2S,"InChI=1S/C15H18O2S/c1-3-4-5-6-9-12-18-15-11-8-7-10-14(15)17-13(2)16/h7-8,10-11H,3-5,12H2,1-2H3",262.36722,-5.888543724820001,-0.7510342273799999,5.137509497440001,1.9663691483007457
000002214,COc1cc(ccc1O)C(=O)C,C9H10O3,"InChI=1S/C9H10O3/c1-6(10)7-3-4-8(11)9(5-7)12-2/h3-5,11H,1-2H3",166.1739,-5.87221689379,-1.140157033595,4.732059860195,1.748618708746135
000002215,CN1CCc2c3C1Cc1ccc(c(c1c3ccc2)O)O,C17H17NO2,"InChI=1S/C17H17NO2/c1-18-8-7-10-3-2-4-12-15(10)13(18)9-11-5-6-14(19)17(20)16(11)12/h2-6,13,19-20H,7-9H2,1H3",267.32238,-5.34975830083,-0.851716352065,4.498041948765,3.355673056966814
000002216,Nc1cc(Cl)c(c(c1)Cl)NC1=NCCN1,C9H10Cl2N4,"InChI=1S/C9H10Cl2N4/c10-6-3-5(12)4-7(11)8(6)15-9-13-1-2-14-9/h3-4H,1-2,12H2,(H2,13,14,15)",245.1085,-5.40418107093,-0.6095350251200005,4.7946460458099995,5.19299001744881
000002218,CCN(CCCN(C1Cc2c(C1)cccc2)c1ccccc1)CC,C22H30N2,"InChI=1S/C22H30N2/c1-3-23(4-2)15-10-16-24(21-13-6-5-7-14-21)22-17-19-11-8-9-12-20(19)18-22/h5-9,11-14,22H,3-4,10,15-18H2,1-2H3",322.487,-4.95791435611,-0.22585449591499973,4.732059860195,1.7598951742368067
000002219,OCC(C(C(COP(=O)(O)O)O)O)O,C5H13O8P,"InChI=1S/C5H13O8P/c6-1-3(7)5(9)4(8)2-13-14(10,11)12/h3-9H,1-2H2,(H2,10,11,12)",232.125681,-7.034143035425,0.4054496372449998,7.43959267267,4.030498788773171
000002220,CCCCCC=CCC=CCC=CCC=CCCCC(=O)N,C20H33NO,"InChI=1S/C20H33NO/c1-2-3-4-5-6-7-8-9-10-11-12-13-14-15-16-17-18-19-20(21)22/h6-7,9-10,12-13,15-16H,2-5,8,11,14,17-19H2,1H3,(H2,21,22)",303.48212,-5.940245356415,-0.24218132694500039,5.698064029469999,4.306153553754905
000002221,CCCCCC=CCC=CCC=CCC=CCCCC(=O)OC(C)C,C23H38O2,"InChI=1S/C23H38O2/c1-4-5-6-7-8-9-10-11-12-13-14-15-16-17-18-19-20-21-23(24)25-22(2)3/h8-9,11-12,14-15,17-18,22H,4-7,10,13,16,19-21H2,1-3H3",346.54662,-6.1797055448550005,0.1932008338550002,6.372906378710001,1.6405027005710782
000002224,CCCCCC=CCC=CCC=CCC=CCCCC(=O)C(F)(F)F,C21H31F3O,"InChI=1S/C21H31F3O/c1-2-3-4-5-6-7-8-9-10-11-12-13-14-15-16-17-18-19-20(25)21(22,23)24/h6-7,9-10,12-13,15-16H,2-5,8,11,14,17-19H2,1H3",356.4654496,-6.21508034542,-1.5619335018700005,4.653146843549999,3.2637944529850524
000002225,COC(=O)C1=C(C)NC(=C(C1c1ccccc1[N+](=O)[O-])C(=O)OCC(=O)C)C,C19H20N2O7,"InChI=1S/C19H20N2O7/c1-10(22)9-28-19(24)16-12(3)20-11(2)15(18(23)27-4)17(16)13-7-5-6-8-14(13)21(25)26/h5-8,17,20H,9H2,1-4H3",388.3713,-5.4966997801,-2.0136424937,3.4830572864000002,5.80850755694378
000002227,NC(=NCCCCN=C(N)N)N,C6H16N6,"InChI=1S/C6H16N6/c7-5(8)11-3-1-2-4-12-6(9)10/h1-4H2,(H4,7,8,11)(H4,9,10,12)",172.23144,-5.7606502150850005,1.1265513410699999,6.887201556155,1.5344518316568299
000002229,CN1CC(=CCC1)C(=O)OCC#C,C10H13NO2,"InChI=1S/C10H13NO2/c1-3-7-13-10(12)9-5-4-6-11(2)8-9/h1,5H,4,6-8H2,2H3",179.21572,-5.76337135359,-1.0857342634949996,4.677637090095001,2.6171146406615438
000002230,COC(=O)C1=CCCN(C1)C,C8H13NO2,"InChI=1S/C8H13NO2/c1-9-5-3-4-7(6-9)8(10)11-2/h4H,3,5-6H2,1-2H3",155.19432,-5.71983313751,-1.0068212468499995,4.713011890660001,2.6844617935657045
000002234,NC(=NCCCC(C(=O)N)N)N,C6H15N5O,"InChI=1S/C6H15N5O/c7-4(5(8)12)2-1-3-11-6(9)10/h4H,1-3,7H2,(H2,8,12)(H4,9,10,11)",173.2162,-6.0409274811,0.829947244025,6.870874725125,4.939983426268351
000002235,OCC1CC(C(C1O)O)n1cnc2c1ncnc2N,C11H15N5O3,"InChI=1S/C11H15N5O3/c12-10-7-11(14-3-13-10)16(4-15-7)6-1-5(2-17)8(18)9(6)19/h3-6,8-9,17-19H,1-2H2,(H2,12,13,14)",265.2685,-6.0790234201699995,-0.8843700141250004,5.194653406044999,2.003236152715151
000002236,COc1cccc2c1cc([N+](=O)[O-])c1c2c2OCOc2cc1C(=O)O,C17H11NO7,"InChI=1S/C17H11NO7/c1-23-12-4-2-3-8-9(12)5-11(18(21)22)14-10(17(19)20)6-13-16(15(8)14)25-7-24-13/h2-6H,7H2,1H3,(H,19,20)",341.27174,-5.87221689379,-2.3211311447650003,3.551085749025,11.023900470984579
000002237,CC(=C)C1CC=C2C(C1)(C)C(C)CCC2,C15H24,"InChI=1S/C15H24/c1-11(2)13-8-9-14-7-5-6-12(3)15(14,4)10-13/h9,12-13H,1,5-8,10H2,2-4H3",204.35106,-5.92663966389,0.6394675486750003,6.566107212565,0.43318038730418074
000002238,[O-][N+](=O)c1ccc(c2c1c(=O)c1c(o2)cccc1)Cn1cncc1,C17H11N3O4,"InChI=1S/C17H11N3O4/c21-16-12-3-1-2-4-14(12)24-17-11(9-19-8-7-18-10-19)5-6-13(15(16)17)20(22)23/h1-8,10H,9H2",321.28694,-6.17698440635,-2.424534407955,3.752449998395,5.8134619975444055
000002239,OC(CSc1scc(n1)c1ccc(s1)C(=O)N)CNC(C)(C)C,C15H21N3O2S3,"InChI=1S/C15H21N3O2S3/c1-15(2,3)17-6-9(19)7-21-14-18-10(8-22-14)11-4-5-12(23-11)13(16)20/h4-5,8-9,17,19H,6-7H2,1-3H3,(H2,16,20)",371.54114,-5.820515262195,-1.7197595351599997,4.100755727035001,4.372155355917833
000002240,O=C1OC2OC3(C)CCC4C2(C(C1C)CCC4C)OO3,C15H22O5,"InChI=1S/C15H22O5/c1-8-4-5-11-9(2)12(16)17-13-15(11)10(8)6-7-14(3,18-13)19-20-15/h8-11,13H,4-7H2,1-3H3",282.33218,-6.86815358662,0.32653662059999977,7.19469020722,5.871946798675376
000002242,COC(=O)C(NC(=O)C(CC(=O)O)N)Cc1ccccc1,C14H18N2O5,"InChI=1S/C14H18N2O5/c1-21-14(20)11(7-9-5-3-2-4-6-9)16-13(19)10(15)8-12(17)18/h2-6,10-11H,7-8,15H2,1H3,(H,16,19)(H,17,18)",294.30312,-6.62325112117,-0.49252606940499977,6.130725051765,6.7024581016653135
000002243,OC(=O)CC(C(=O)OP(=O)(OCC1OC(C(C1O)O)n1cnc2c1ncnc2N)O)N,C14H19N6O10P,"InChI=1S/C14H19N6O10P/c15-5(1-7(21)22)14(25)30-31(26,27)28-2-6-9(23)10(24)13(29-6)20-4-19-8-11(16)17-3-18-12(8)20/h3-6,9-10,13,23-24H,1-2,15H2,(H,21,22)(H,26,27)(H2,16,17,18)",462.308621,-6.419165733295,-1.2299546042600005,5.189211129035,6.196059797545211
000002244,CC(=O)Oc1ccccc1C(=O)O,C9H8O4,"InChI=1S/C9H8O4/c1-6(10)13-8-5-3-2-4-7(8)9(11)12/h2-5H,1H3,(H,11,12)",180.15742,-6.990604819345001,-1.4694147927000003,5.521190026645001,4.145499477540191
000002245,CNC(=O)CC(C(=O)NC(c1ccc(cc1)O)C(=O)NC1C(=O)N2C1SC(C2C(=O)O)(C)C)N,C21H27N5O7S,"InChI=1S/C21H27N5O7S/c1-21(2)15(20(32)33)26-18(31)14(19(26)34-21)25-17(30)13(9-4-6-10(27)7-5-9)24-16(29)11(22)8-12(28)23-3/h4-7,11,13-15,19,27H,8,22H2,1-3H3,(H,23,28)(H,24,29)(H,25,30)(H,32,33)",493.53338,-6.1878689603699994,-0.97416758479,5.2137013755799995,5.19652106213734
000002247,COc1ccc(cc1)CCN1CCC(CC1)Nc1nc2c(n1Cc1ccc(cc1)F)cccc2,C28H31FN4O,"InChI=1S/C28H31FN4O/c1-34-25-12-8-21(9-13-25)14-17-32-18-15-24(16-19-32)30-28-31-26-4-2-3-5-27(26)33(28)20-22-6-10-23(29)11-7-22/h2-13,24H,14-20H2,1H3,(H,30,31)",458.5703432,-5.265403007175,-0.7102171498049996,4.555185857370001,2.6940509895284093
000002248,COC1C(O)C(N)C(C(C1N(C(=O)CN)C)O)OC1OC(CCC1N)C(N)C,C17H35N5O6,"InChI=1S/C17H35N5O6/c1-7(19)9-5-4-8(20)17(27-9)28-15-11(21)13(24)16(26-3)12(14(15)25)22(2)10(23)6-18/h7-9,11-17,24-25H,4-6,18-21H2,1-3H3",405.4897,-6.027321788575001,0.8381106595399999,6.865432448115,3.7269351727071935
000002249,OC(COc1ccc(cc1)CC(=O)N)CNC(C)C,C14H22N2O3,"InChI=1S/C14H22N2O3/c1-10(2)16-8-12(17)9-19-13-5-3-11(4-6-13)7-14(15)18/h3-6,10,12,16-17H,7-9H2,1-2H3,(H2,15,18)",266.33608,-5.94296649492,-0.41089191425500005,5.532074580665,4.003088228815723
000002252,[NH3+]C(C(=O)[O-])Cc1c(o[nH]c1=O)C(C)(C)C,C10H16N2O4,"InChI=1S/C10H16N2O4/c1-10(2,3)7-5(8(13)12-16-7)4-6(11)9(14)15/h6H,4,11H2,1-3H3,(H,12,13)(H,14,15)",228.24504,-5.51846888814,-1.2734928203400004,4.2449760678,8.591070780141436
000002253,NC(C(=O)O)Cc1c(o[nH]c1=O)C(C)(C)C,C10H16N2O4,"InChI=1S/C10H16N2O4/c1-10(2,3)7-5(8(13)12-16-7)4-6(11)9(14)15/h6H,4,11H2,1-3H3,(H,12,13)(H,14,15)",228.24504,-6.430050287315001,-1.1592050031300003,5.270845284185,4.186865025685567
000002256,CCNc1nc(NC(C)C)nc(n1)Cl,C8H14ClN5,"InChI=1S/C8H14ClN5/c1-4-10-7-12-6(9)13-8(14-7)11-5(2)3/h5H,4H2,1-3H3,(H2,10,11,12,13,14)",215.68326,-6.307599054590001,-0.5986504711,5.708948583490001,3.854191660344488
000002258,NOC(=O)C1=CC(=C(c2ccc(c(c2)C(=O)ON)O)c2ccc(c(c2)C(=O)ON)O)C=CC1=O,C22H17N3O9,"InChI=1S/C22H17N3O9/c23-32-20(29)13-7-10(1-4-16(13)26)19(11-2-5-17(27)14(8-11)21(30)33-24)12-3-6-18(28)15(9-12)22(31)34-25/h1-9,26-27H,23-25H2",467.38508,-6.228686037945,-2.756513305565,3.47217273238,5.554303438356424
000002259,OC(=O)C1=CC(=C(c2ccc(c(c2)C(=O)O)O)c2ccc(c(c2)C(=O)O)O)C=CC1=O,C22H14O9,"InChI=1S/C22H14O9/c23-16-4-1-10(7-13(16)20(26)27)19(11-2-5-17(24)14(8-11)21(28)29)12-3-6-18(25)15(9-12)22(30)31/h1-9,23-24H,(H,26,27)(H,28,29)(H,30,31)",422.34116,-6.571549489575,-3.240875959455,3.3306735301200003,12.014848119443915
000002261,CCC1OC2(C(C1(C)OC(C2O)C=CC=CC=Cc1oc(=O)cc(c1C)OC)OC(=O)C)C,C25H32O8,"InChI=1S/C25H32O8/c1-7-20-24(4)23(30-16(3)26)25(5,33-20)22(28)18(32-24)13-11-9-8-10-12-17-15(2)19(29-6)14-21(27)31-17/h8-14,18,20,22-23,28H,7H2,1-6H3",460.51678,-5.33887374681,-1.9456140310749999,3.393259715735,6.493021084223275
000002264,Clc1cc2N(C)C(=O)COc2c(c1)C(=O)NC1CN2CCC1CC2,C17H20ClN3O3,"InChI=1S/C17H20ClN3O3/c1-20-14-7-11(18)6-12(16(14)24-9-15(20)22)17(23)19-13-8-21-4-2-10(13)3-5-21/h6-7,10,13H,2-5,8-9H2,1H3,(H,19,23)",349.812,-5.71983313751,-1.2000220807049997,4.5198110568050005,2.6060452375490337
000002265,Cn1cnc(c1Sc1ncnc2c1[nH]cn2)[N+](=O)[O-],C9H7N7O2S,"InChI=1S/C9H7N7O2S/c1-15-4-14-7(16(17)18)9(15)19-8-5-6(11-2-10-5)12-3-13-8/h2-4H,1H3,(H,10,11,12,13)",277.26258,-7.001489373365,-2.538822225165,4.4626671481999995,4.1442577846118605
000002266,OC(=O)CCCCCCCC(=O)O,C9H16O4,"InChI=1S/C9H16O4/c10-8(11)6-4-2-1-3-5-7-9(12)13/h1-7H2,(H,10,11)(H,12,13)",188.22094,-7.464082919215,0.06530732411999995,7.5293902433349995,4.925372471629836
000002267,CN1CCCC(CC1)n1nc(Cc2ccc(cc2)Cl)c2c(c1=O)cccc2,C22H24ClN3O,"InChI=1S/C22H24ClN3O/c1-25-13-4-5-18(12-14-25)26-22(27)20-7-3-2-6-19(20)21(24-26)15-16-8-10-17(23)11-9-16/h2-3,6-11,18H,4-5,12-15H2,1H3",381.89846,-5.81779412369,-1.3905017760550002,4.4272923476349995,1.7277966642895222
000002268,COP(=S)(SCn1nnc2c(c1=O)cccc2)OC,C10H12N3O3PS2,"InChI=1S/C10H12N3O3PS2/c1-15-17(18,16-2)19-7-13-10(14)8-5-3-4-6-9(8)11-12-13/h3-6H,7H2,1-2H3",317.324341,-6.674952752765,-2.0599018482849996,4.61505090448,4.203821276968968
000002271,O=C(C(c1ccccc1)NC(=O)N1CCNC1=O)NC1C(=O)N2C1SC(C2C(=O)O)(C)C,C20H23N5O6S,"InChI=1S/C20H23N5O6S/c1-20(2)13(17(28)29)25-15(27)12(16(25)32-20)22-14(26)11(10-6-4-3-5-7-10)23-19(31)24-9-8-21-18(24)30/h3-7,11-13,16H,8-9H2,1-2H3,(H,21,30)(H,22,26)(H,23,31)(H,28,29)",461.49152,-6.33481043964,-0.8626009060849995,5.4722095335550005,8.90455160182527
000002272,c1ccc(cc1)N=Nc1ccccc1,C12H10N2,InChI=1S/C12H10N2/c1-3-7-11(8-4-1)13-14-12-9-5-2-6-10-12/h1-10H,182.2212,-5.8232364007,-2.0354116017400004,3.7878247989599996,0.0767476896655528
000002273,Clc1cc(NCc2cccs2)c(cc1S(=O)(=O)N)c1n[nH]nn1,C12H11ClN6O2S2,"InChI=1S/C12H11ClN6O2S2/c13-9-5-10(15-6-7-2-1-3-22-7)8(12-16-18-19-17-12)4-11(9)23(14,20)21/h1-5,15H,6H2,(H2,14,20,21)(H,16,17,18,19)",370.83774,-5.945687633425,-1.6245196874849999,4.32116794594,6.040923268826877
000002274,CC1C(NC(=O)C(=NOC(C(=O)O)(C)C)c2csc(n2)N)C(=O)N1S(=O)(=O)O,C13H17N5O8S2,"InChI=1S/C13H17N5O8S2/c1-5-7(10(20)18(5)28(23,24)25)16-9(19)8(6-4-27-12(14)15-6)17-26-13(2,3)11(21)22/h4-5,7H,1-3H3,(H2,14,15)(H,16,19)(H,21,22)(H,23,24,25)",435.43278,-6.155215298310001,-1.3061464824,4.849068815910001,8.516238140736435
000002275,CC(c1ccc(c2c(c1)c(C)cc2S(=O)(=O)O)C)C,C15H18O3S,"InChI=1S/C15H18O3S/c1-9(2)12-6-5-10(3)15-13(8-12)11(4)7-14(15)19(16,17)18/h5-9H,1-4H3,(H,16,17,18)",278.36662,-5.63819898236,-2.332015698785,3.306183283575,6.481300756189995
000002277,CCN1CCc2c(CC1)nc(o2)N,C9H15N3O,"InChI=1S/C9H15N3O/c1-2-12-5-3-7-8(4-6-12)13-9(10)11-7/h2-6H2,1H3,(H2,10,11)",181.2349,-5.172884298005,0.6367464101699998,5.809630708175,1.967936229724175
000002278,[O-][N+](=O)OCc1cccc(c1)OC(=O)c1ccccc1O,C14H11NO6,"InChI=1S/C14H11NO6/c16-13-7-2-1-6-12(13)14(17)21-11-5-3-4-10(8-11)9-20-15(18)19/h1-8,16H,9H2",289.24024,-6.32936816263,-1.59458716393,4.7347809987,5.277432871088556
000002279,CSCCC(C(=O)O)NC(=O)C(Cc1ccccc1)NCC(C(C)C)NCC(CS)N,C22H38N4O3S2,"InChI=1S/C22H38N4O3S2/c1-15(2)20(24-12-17(23)14-30)13-25-19(11-16-7-5-4-6-8-16)21(27)26-18(22(28)29)9-10-31-3/h4-8,15,17-20,24-25,30H,9-14,23H2,1-3H3,(H,26,27)(H,28,29)",470.69212,-5.83412095472,-0.2612292964799998,5.5728916582400005,2.811085940954847
000002281,O=C(c1nc2c([nH]1)cc(cc2)C(=N)N)c1nc2c([nH]1)cc(cc2)C(=N)N,C17H14N8O,"InChI=1S/C17H14N8O/c18-14(19)7-1-3-9-11(5-7)24-16(22-9)13(26)17-23-10-4-2-8(15(20)21)6-12(10)25-17/h1-6H,(H3,18,19)(H3,20,21)(H,22,24)(H,23,25)",346.34606,-6.234128314955,-2.72658078201,3.507547532945,4.1988917697018575
000002282,CCOC(=O)OC(OC(=O)C1N2C(=O)C(C2SC1(C)C)NC(=O)C(c1ccccc1)N)C,C21H27N3O7S,"InChI=1S/C21H27N3O7S/c1-5-29-20(28)31-11(2)30-19(27)15-21(3,4)32-18-14(17(26)24(15)18)23-16(25)13(22)12-9-7-6-8-10-12/h6-11,13-15,18H,5,22H2,1-4H3,(H,23,25)",465.51998,-6.196032375885,-0.5823236400700003,5.613708735815,4.4172970111036225
000002284,NCC(c1ccc(cc1)Cl)CC(=O)O,C10H12ClNO2,"InChI=1S/C10H12ClNO2/c11-9-3-1-7(2-4-9)8(6-12)5-10(13)14/h1-4,8H,5-6,12H2,(H,13,14)",213.66078,-6.5252901349900005,-0.3918439447199997,6.133446190270001,6.362422946253888
000002285,OC(=O)OCc1ccccc1,C8H8O3,"InChI=1S/C8H8O3/c9-8(10)11-6-7-4-2-1-3-5-7/h1-5H,6H2,(H,9,10)",152.14732,-6.811009678015001,-0.38912280621500006,6.421886871800001,0.6689311624980555
000002286,CC(c1ccc(cc1)OCC1OC1)(c1ccc(cc1)OCC1OC1)C,C21H24O4,"InChI=1S/C21H24O4/c1-21(2,15-3-7-17(8-4-15)22-11-19-13-24-19)16-5-9-18(10-6-16)23-12-20-14-25-20/h3-10,19-20H,11-14H2,1-2H3",340.41286,-5.597381904785,-0.19047969534999964,5.4069022094350006,3.254764745494826
000002289,Oc1ccc(cc1)C1Oc2c3C1c1cc(O)cc(c1C(C(c3cc(c2)O)O)c1ccc(cc1)O)O,C28H22O7,"InChI=1S/C28H22O7/c29-15-5-1-13(2-6-15)23-24-19(9-17(31)11-21(24)33)26-25-20(27(23)34)10-18(32)12-22(25)35-28(26)14-3-7-16(30)8-4-14/h1-12,23,26-34H",470.47008,-5.311662361760001,-0.3401423131249999,4.971520048635001,3.9135314959418688
000002292,CCCCNCC(c1ccc(cc1)O)O,C12H19NO2,"InChI=1S/C12H19NO2/c1-2-3-8-13-9-12(15)10-4-6-11(14)7-5-10/h4-7,12-15H,2-3,8-9H2,1H3",209.28476,-5.5946607662800005,0.11700895571499981,5.711669721995,1.612771264586519
000002294,CCC1(CC)C(=O)NC(=O)NC1=O,C8H12N2O3,"InChI=1S/C8H12N2O3/c1-3-8(4-2)5(11)9-7(13)10-6(8)12/h3-4H2,1-2H3,(H2,9,10,11,12,13)",184.19248,-7.284487777885,-1.183695249675,6.10079252821,1.040892982405492
000002295,COC(=O)c1ccc(o1)C=Cc1ccc(o1)[N+](=O)[O-],C12H9NO6,"InChI=1S/C12H9NO6/c1-17-12(14)10-6-4-8(18-10)2-3-9-5-7-11(19-9)13(15)16/h2-7H,1H3",263.20296,-6.032764065585001,-2.810936075665,3.221827989920001,4.093394897307613
000002296,COC(=O)C1=C(C)NC(=C(C1c1cccc(c1)[N+](=O)[O-])C(=O)OC1CCN(C1)Cc1ccccc1)C,C27H29N3O6,"InChI=1S/C27H29N3O6/c1-17-23(26(31)35-3)25(20-10-7-11-21(14-20)30(33)34)24(18(2)28-17)27(32)36-22-12-13-29(16-22)15-19-8-5-4-6-9-19/h4-11,14,22,25,28H,12-13,15-16H2,1-3H3",491.53566,-5.66541036741,-2.190516496525,3.474893870885,6.11927372122591
000002299,CNC(=O)C(NC(=O)C(C(C(=O)NO)CSc1cccs1)CC(C)C)Cc1ccccc1,C23H31N3O4S2,"InChI=1S/C23H31N3O4S2/c1-15(2)12-17(18(22(28)26-30)14-32-20-10-7-11-31-20)21(27)25-19(23(29)24-3)13-16-8-5-4-6-9-16/h4-11,15,17-19,30H,12-14H2,1-3H3,(H,24,29)(H,25,27)(H,26,28)",477.63994,-5.752486799570001,-0.4843626538899999,5.268124145680001,2.369279379547714
000002300,ClC1=C2NCCc3c2c(C(=O)C1=O)n(c3)C,C11H9ClN2O2,"InChI=1S/C11H9ClN2O2/c1-14-4-5-2-3-13-8-6(5)9(14)11(16)10(15)7(8)12/h4,13H,2-3H2,1H3",236.65436,-5.515747749635,-2.484399455065,3.0313482945699994,9.257824083126284
000002301,N#CC=CS(=O)(=O)c1ccc(cc1)C,C10H9NO2S,"InChI=1S/C10H9NO2S/c1-9-3-5-10(6-4-9)14(12,13)8-2-7-11/h2-6,8H,1H3",207.24896,-7.483130888750001,-2.4571880700150004,5.025942818735,6.211903966309042
000002302,N#CC=CS(=O)(=O)c1ccc(cc1)C(C)(C)C,C13H15NO2S,"InChI=1S/C13H15NO2S/c1-13(2,3)11-5-7-12(8-6-11)17(15,16)10-4-9-14/h4-8,10H,1-3H3",249.3287,-7.4504772266899995,-2.429976684965,5.020500541724999,6.507229710305453
000002303,COC(=O)C1=C(C)NC(=C(C1c1ccccc1C(F)(F)F)[N+](=O)[O-])C,C16H15F3N2O4,"InChI=1S/C16H15F3N2O4/c1-8-12(15(22)25-3)13(14(21(23)24)9(2)20-8)10-6-4-5-7-11(10)16(17,18)19/h4-7,13,20H,1-3H3",356.2965096,-6.10079252821,-2.005479078185,4.095313450025,6.463905182355788
000002304,CCCCC(C(=O)NC(C(C)(C)C)C(=O)N(C)C)CN(C=O)O,C16H31N3O4,"InChI=1S/C16H31N3O4/c1-7-8-9-12(10-19(23)11-20)14(21)17-13(16(2,3)4)15(22)18(5)6/h11-13,23H,7-10H2,1-6H3,(H,17,21)",329.43504,-6.217801483925,-0.14149920226000035,6.076302281665,3.3991451175367606
000002308,OCC(=O)C1(O)C(C)CC2C1(C)CC(O)C1(C2CCC2=CC(=O)C=CC12C)Cl,C22H29ClO5,"InChI=1S/C22H29ClO5/c1-12-8-16-15-5-4-13-9-14(25)6-7-19(13,2)21(15,23)17(26)10-20(16,3)22(12,28)18(27)11-24/h6-7,9,12,15-17,24,26,28H,4-5,8,10-11H2,1-3H3",408.91566,-6.190590098875,-1.695269288615,4.49532081026,8.650676642312149
000002309,OC(COc1cccc2c1oc(c2)C(=O)C)CNC(C)C,C16H21NO4,"InChI=1S/C16H21NO4/c1-10(2)17-8-13(19)9-20-14-6-4-5-12-7-15(11(3)18)21-16(12)14/h4-7,10,13,17,19H,8-9H2,1-3H3",291.34224,-6.010994957545001,-1.7197595351600006,4.291235422385,3.451559010207706
000002310,CCC1(C)CC(=O)NC(=O)C1,C8H13NO2,"InChI=1S/C8H13NO2/c1-3-8(2)4-6(10)9-7(11)5-8/h3-5H2,1-2H3,(H,9,10,11)",155.19432,-6.933460910740001,-0.6748423492400004,6.2586185615000005,3.468575520564314
000002311,CCOC(=O)C(NC1CCc2c(N(C1=O)CC(=O)O)cccc2)CCc1ccccc1,C24H28N2O5,"InChI=1S/C24H28N2O5/c1-2-31-24(30)20(14-12-17-8-4-3-5-9-17)25-19-15-13-18-10-6-7-11-21(18)26(23(19)29)16-22(27)28/h3-11,19-20,25H,2,12-16H2,1H3,(H,27,28)",424.48952,-6.0137160960500005,-0.8598797675799998,5.153836328470001,3.755114609154559
000002312,CN(CCCOC1(CCCCCC1)Cc1ccccc1)C,C19H31NO,"InChI=1S/C19H31NO/c1-20(2)15-10-16-21-19(13-8-3-4-9-14-19)17-18-11-6-5-7-12-18/h5-7,11-12H,3-4,8-10,13-17H2,1-2H3",289.45554,-5.9320819409,0.22857563442000028,6.16065757532,2.0060096183386062