mol_id,SMILES,formula,inchi,mass,HOMO(eV),LUMO(eV),GAP(eV),dipole_moment
000000636,OCC1OC(CC1O)n1cnc2c1ncnc2N,C10H13N5O3,"InChI=1S/C10H13N5O3/c11-9-8-10(13-3-12-9)15(4-14-8)7-1-5(17)6(2-16)18-7/h3-7,16-17H,1-2H2,(H2,11,12,13)",251.24192,-5.711669721995,-0.4680358228600001,5.243633899135,2.739814085165269
000000637,OCC1OC(CC1O)n1ccc(nc1=O)N,C9H13N3O4,"InChI=1S/C9H13N3O4/c10-7-1-2-12(9(15)11-7)8-3-5(14)6(4-13)16-8/h1-2,5-6,8,13-14H,3-4H2,(H2,10,11,15)",227.21722,-5.864053478275,-0.6476309641900002,5.216422514085,4.893285174096642
000000638,OCC1OC(CC1O)n1cnc2c1[nH]c(N)nc2=O,C10H13N5O4,"InChI=1S/C10H13N5O4/c11-10-13-8-7(9(18)14-10)12-3-15(8)6-1-4(17)5(2-16)19-6/h3-6,16-17H,1-2H2,(H3,11,13,14,18)",267.24132,-5.469488395050001,-0.07619187814000039,5.3932965169100004,13.112011130195743
000000639,OCC1OC(CC1O)n1cnc2c1[nH]cnc2=O,C10H12N4O4,"InChI=1S/C10H12N4O4/c15-2-6-5(16)1-7(18-6)14-4-13-8-9(14)11-3-12-10(8)17/h3-7,15-16H,1-2H2,(H,11,12,17)",252.22668,-5.69262175246,-0.5333431469800001,5.15927860548,12.742658999638264
000000640,OCC1OC(CC1O)n1ccc(=O)[nH]c1=O,C9H12N2O5,"InChI=1S/C9H12N2O5/c12-4-6-5(13)3-8(16-6)11-2-1-7(14)10-9(11)15/h1-2,5-6,8,12-13H,3-4H2,(H,10,14,15)",228.20198,-6.37834865572,-0.8626009060849995,5.5157477496350005,5.558170189736726
000000641,OC(C(C(=O)C)O)COP(=O)(O)O,C5H11O7P,"InChI=1S/C5H11O7P/c1-3(6)5(8)4(7)2-12-13(9,10)11/h4-5,7-8H,2H2,1H3,(H2,9,10,11)",214.110401,-6.993325957850001,-0.66395779522,6.329368162630001,0.6457251483936489
000000643,OC(=O)CCCCCC1NC(=O)NC1C,C10H18N2O3,"InChI=1S/C10H18N2O3/c1-7-8(12-10(15)11-7)5-3-2-4-6-9(13)14/h7-8H,2-6H2,1H3,(H,13,14)(H2,11,12,15)",214.26152,-6.457261672365,0.09251870917000016,6.549780381535,6.365775738256022
000000644,OC1CC(OC1COP(=O)(OP(=O)(O)O)O)n1cnc2c1[nH]c(N)nc2=O,C10H15N5O10P2,"InChI=1S/C10H15N5O10P2/c11-10-13-8-7(9(17)14-10)12-3-15(8)6-1-4(16)5(24-6)2-23-27(21,22)25-26(18,19)20/h3-6,16H,1-2H2,(H,21,22)(H2,18,19,20)(H3,11,13,14,17)",427.201122,-5.95929332595,-0.5796025015649997,5.379690824385,8.021170595363621
000000645,OC1CC(OC1COP(=O)(O)O)n1cnc2c1[nH]c(N)nc2=O,C10H14N5O7P,"InChI=1S/C10H14N5O7P/c11-10-13-8-7(9(17)14-10)12-3-15(8)6-1-4(16)5(22-6)2-21-23(18,19)20/h3-6,16H,1-2H2,(H2,18,19,20)(H3,11,13,14,17)",347.221221,-5.80146729266,-0.35374800565,5.44771928701,11.222884184638591
000000647,CC(=CCOP(=O)(OP(=O)(O)O)O)C,C5H12O7P2,"InChI=1S/C5H12O7P2/c1-5(2)3-4-11-14(9,10)12-13(6,7)8/h3H,4H2,1-2H3,(H,9,10)(H2,6,7,8)",246.092102,-6.7130486918350005,-0.2829984045199998,6.430050287315001,5.046956786675906
000000648,O=C1NC(=O)NC(C1)C(=O)O,C5H6N2O4,"InChI=1S/C5H6N2O4/c8-3-1-2(4(9)10)6-5(11)7-3/h2H,1H2,(H,9,10)(H2,6,7,8,11)",158.11214,-7.68449513812,-1.03947490891,6.64502022921,1.112055962061712
000000649,O=C1CCNC(=O)N1,C4H6N2O2,"InChI=1S/C4H6N2O2/c7-3-1-2-5-4(8)6-3/h1-2H2,(H2,5,6,7,8)",114.10264,-7.058633281970001,-0.3864016677100004,6.67223161426,3.981220167079183
000000650,CC(=O)C(=O)C,C4H6O2,InChI=1S/C4H6O2/c1-3(5)4(2)6/h1-2H3,86.08924,-6.438213702830001,-1.4204342996100001,5.0177794032200005,2.581977082673469
000000651,OC1C(OC(C1O)COP(=O)(O)O)Nc1[nH]c(N)nc(=O)c1N,C9H16N5O8P,"InChI=1S/C9H16N5O8P/c10-3-6(13-9(11)14-7(3)17)12-8-5(16)4(15)2(22-8)1-21-23(18,19)20/h2,4-5,8,15-16H,1,10H2,(H2,18,19,20)(H4,11,12,13,14,17)",353.225801,-4.87628020096,-0.0897975706649996,4.7864826302950005,6.371712417192493
000000652,OC(=O)CCCCCC(C(N)C)N,C9H20N2O2,"InChI=1S/C9H20N2O2/c1-7(10)8(11)5-3-2-4-6-9(12)13/h7-8H,2-6,10-11H2,1H3,(H,12,13)",188.2673,-6.00827381904,0.11428781721000014,6.12256163625,4.852104788678106
000000654,CCOP(=O)(OCC)O,C4H11O4P,"InChI=1S/C4H11O4P/c1-3-7-9(5,6)8-4-2/h3-4H2,1-2H3,(H,5,6)",154.101501,-7.84776344842,0.9061391221649995,8.753902570585,2.715132639632178
000000655,CCOP(=S)(OCC)O,C4H11O3PS,"InChI=1S/C4H11O3PS/c1-3-6-8(5,9)7-4-2/h3-4H2,1-2H3,(H,5,9)",170.167101,-6.77563487745,0.7374285348549998,7.513063412305,3.5378634624527274
000000659,Nc1nc(=O)c2c([nH]1)NCC(=N2)C(C(CO)O)O,C9H13N5O4,"InChI=1S/C9H13N5O4/c10-9-13-7-5(8(18)14-9)12-3(1-11-7)6(17)4(16)2-15/h4,6,15-17H,1-2H2,(H4,10,11,13,14,18)",255.23062,-5.706227444985,-1.3143098979149999,4.39191754707,8.443275635719647
000000660,O=C1CCc2c(O1)cccc2,C9H8O2,"InChI=1S/C9H8O2/c10-9-6-5-7-3-1-2-4-8(7)11-9/h1-4H,5-6H2",148.15862,-6.364742963195,-0.5578333935249997,5.80690956967,3.9382448502957508
000000661,OC(=O)CCC(C(=O)O)NC(=O)c1ccc(cc1)NCC1=Nc2c(NC1)[nH]c(nc2=O)N,C19H21N7O6,"InChI=1S/C19H21N7O6/c20-19-25-15-14(17(30)26-19)23-11(8-22-15)7-21-10-3-1-9(2-4-10)16(29)24-12(18(31)32)5-6-13(27)28/h1-4,12,21H,5-8H2,(H,24,29)(H,27,28)(H,31,32)(H4,20,22,25,26,30)",443.41334,-5.368806270365,-1.1782529726649997,4.1905532977,7.516020264067281
000000662,Oc1ccc(cc1)C1Oc2cc(O)cc(c2C(=O)C1O)O,C15H12O6,"InChI=1S/C15H12O6/c16-8-3-1-7(2-4-8)15-14(20)13(19)12-10(18)5-9(17)6-11(12)21-15/h1-6,14-18,20H",288.25218,-5.8232364007,-1.61635627197,4.20688012873,0.5136932793467324
000000663,SCCC(CCCCC(=O)N)S,C8H17NOS2,"InChI=1S/C8H17NOS2/c9-8(10)4-2-1-3-7(12)5-6-11/h7,11-12H,1-6H2,(H2,9,10)",207.35668,-6.364742963195,0.6993325957850001,7.06407555898,2.5027049184614234
000000664,OC(C1=Nc2c(NC1)[nH]c(nc2=O)N)C(COP(=O)(O)O)O,C9H14N5O7P,"InChI=1S/C9H14N5O7P/c10-9-13-7-5(8(17)14-9)12-3(1-11-7)6(16)4(15)2-21-22(18,19)20/h4,6,15-16H,1-2H2,(H2,18,19,20)(H4,10,11,13,14,17)",335.210521,-6.00827381904,-1.4394822691450004,4.568791549895,13.272703098414654
000000665,OC(C(C1=Nc2c(NC1)[nH]c(nc2=O)N)O)COP(=O)(OP(=O)(OP(=O)(O)O)O)O,C9H16N5O13P3,"InChI=1S/C9H16N5O13P3/c10-9-13-7-5(8(17)14-9)12-3(1-11-7)6(16)4(15)2-25-29(21,22)27-30(23,24)26-28(18,19)20/h4,6,15-16H,1-2H2,(H,21,22)(H,23,24)(H2,18,19,20)(H4,10,11,13,14,17)",495.170323,-5.711669721995,-1.319752174925,4.39191754707,5.326673396903268
000000666,O=c1nc(N)[nH]c2c1N=C(CN2)COP(=O)(OP(=O)(O)O)O,C7H11N5O8P2,"InChI=1S/C7H11N5O8P2/c8-7-11-5-4(6(13)12-7)10-3(1-9-5)2-19-22(17,18)20-21(14,15)16/h1-2H2,(H,17,18)(H2,14,15,16)(H4,8,9,11,12,13)",355.138462,-5.8776591708,-1.72520181217,4.15245735863,5.9663914624960706
000000668,OCC(=O)COP(=O)(O)O,C3H7O6P,"InChI=1S/C3H7O6P/c4-1-3(5)2-9-10(6,7)8/h4H,1-2H2,(H2,6,7,8)",170.057841,-7.654562614565,-1.7959514133,5.858611201265,5.0937701370699875
000000669,CC(=O)C(COP(=O)(O)O)O,C4H9O6P,"InChI=1S/C4H9O6P/c1-3(5)4(6)2-10-11(7,8)9/h4,6H,2H2,1H3,(H2,7,8,9)",184.084421,-7.2110170382500005,-0.9115813991749997,6.299435639075001,3.234663305735854
000000670,OCC(=O)CO,C3H6O3,"InChI=1S/C3H6O3/c4-1-3(6)2-5/h4-5H,1-2H2",90.07794,-7.162036545159999,-1.1075033715349996,6.054533173625,1.184853135902083
000000671,OC(=O)c1cc(O)c2c(c1O)cccc2,C11H8O4,"InChI=1S/C11H8O4/c12-9-5-8(11(14)15)10(13)7-4-2-1-3-6(7)9/h1-5,12-13H,(H,14,15)",204.17882,-5.521190026645,-1.629961964495,3.8912280621499997,4.874176993464743
000000672,OCC(C(C(Cn1c(C)c(C)nc2c1nc(=O)[nH]c2=O)O)O)O,C13H18N4O6,"InChI=1S/C13H18N4O6/c1-5-6(2)17(3-7(19)10(21)8(20)4-18)11-9(14-5)12(22)16-13(23)15-11/h7-8,10,18-21H,3-4H2,1-2H3,(H,16,22,23)",326.30522,-6.054533173625,-2.571475887225,3.4830572864,8.903236247703248
000000673,CN(CC(=O)O)C,C4H9NO2,"InChI=1S/C4H9NO2/c1-5(2)3-4(6)7/h3H2,1-2H3,(H,6,7)",103.11976,-6.217801483925,-0.1306146482399999,6.087186835685,3.4684871054869153
000000674,CNC,C2H7N,"InChI=1S/C2H7N/c1-3-2/h3H,1-2H3",45.08368,-5.918476248375,2.337457975795,8.25593422417,1.1212046172563686
000000675,Cc1cc2[nH]cnc2cc1C,C9H10N2,"InChI=1S/C9H10N2/c1-6-3-8-9(4-7(6)2)11-5-10-8/h3-5H,1-2H3,(H,10,11)",146.1891,-5.730717691530001,-0.29388295854000024,5.43683473299,3.297461771544137
000000676,OC1CC(OC1COP(=O)(O)O)n1cnc2c1[nH]cnc2=O,C10H13N4O7P,"InChI=1S/C10H13N4O7P/c15-5-1-7(21-6(5)2-20-22(17,18)19)14-4-13-8-9(14)11-3-12-10(8)16/h3-7,15H,1-2H2,(H,11,12,16)(H2,17,18,19)",332.206581,-5.989225849505,-0.7945724434599999,5.194653406045,8.911574878520014
000000677,OC(=O)C(C(O)(C)C)O,C5H10O4,"InChI=1S/C5H10O4/c1-5(2,9)3(6)4(7)8/h3,6,9H,1-2H3,(H,7,8)",134.1305,-7.491294304265,0.17415286431999988,7.665447168585,4.7627584094511874
000000678,OC1CC(OC1COP(=O)(OP(=O)(OP(=O)(O)O)O)O)n1cnc2c1[nH]cnc2=O,C10H15N4O13P3,"InChI=1S/C10H15N4O13P3/c15-5-1-7(14-4-13-8-9(14)11-3-12-10(8)16)25-6(5)2-24-29(20,21)27-30(22,23)26-28(17,18)19/h3-7,15H,1-2H2,(H,20,21)(H,22,23)(H,11,12,16)(H2,17,18,19)",492.166383,-5.831399816215,-1.1973009422,4.634098874015,12.052498748974921
000000679,CS(=O)C,C2H6OS,InChI=1S/C2H6OS/c1-4(2)3/h1-2H3,78.13344,-6.03548520409,1.3224733134299997,7.35795851752,3.8399309594971887
000000680,CCC(=CCCCC(CCOP(=O)(O)O)C)C,C12H25O4P,"InChI=1S/C12H25O4P/c1-4-11(2)7-5-6-8-12(3)9-10-16-17(13,14)15/h7,12H,4-6,8-10H2,1-3H3,(H2,13,14,15)",264.298261,-6.3021567775800005,0.3918439447199997,6.6940007223,3.900725565647243
000000681,NCCc1ccc(c(c1)O)O,C8H11NO2,"InChI=1S/C8H11NO2/c9-4-3-6-1-2-7(10)8(11)5-6/h1-2,5,10-11H,3-4,9H2",153.17844,-5.45316156402,0.21496994189500018,5.668131505915,3.39695285879772
000000682,OC(=O)C(CC1=CC(=O)C(=O)C=C1)N,C9H9NO4,"InChI=1S/C9H9NO4/c10-6(9(13)14)3-5-1-2-7(11)8(12)4-5/h1-2,4,6H,3,10H2,(H,13,14)",195.17206,-6.889922694659999,-3.66809470474,3.221827989919999,4.561738129161515
000000683,O=C(C(COP(=O)(O)O)O)OP(=O)(O)O,C3H8O10P2,"InChI=1S/C3H8O10P2/c4-2(1-12-14(6,7)8)3(5)13-15(9,10)11/h2,4H,1H2,(H2,6,7,8)(H2,9,10,11)",266.037142,-7.817830924865,-1.4313188536300006,6.386512071235,2.927434249857202
000000687,OC1CC(OC1COP(=O)(OP(=O)(O)O)O)n1ccc(=O)[nH]c1=O,C9H14N2O11P2,"InChI=1S/C9H14N2O11P2/c12-5-3-8(11-2-1-7(13)10-9(11)14)21-6(5)4-20-24(18,19)22-23(15,16)17/h1-2,5-6,8,12H,3-4H2,(H,18,19)(H,10,13,14)(H2,15,16,17)",388.161782,-6.4218868718,-0.9469561997399998,5.47493067206,7.335392149117933
000000688,OC1CC(OC1COP(=O)(O)O)n1ccc(=O)[nH]c1=O,C9H13N2O8P,"InChI=1S/C9H13N2O8P/c12-5-3-8(11-2-1-7(13)10-9(11)14)19-6(5)4-18-20(15,16)17/h1-2,5-6,8,12H,3-4H2,(H,10,13,14)(H2,15,16,17)",308.181881,-6.79196170848,-1.2925407898749999,5.499420918605,5.542583301671072
000000689,OC1CC(OC1COP(=O)(OP(=O)(OP(=O)(O)O)O)O)n1ccc(=O)[nH]c1=O,C9H15N2O14P3,"InChI=1S/C9H15N2O14P3/c12-5-3-8(11-2-1-7(13)10-9(11)14)23-6(5)4-22-27(18,19)25-28(20,21)24-26(15,16)17/h1-2,5-6,8,12H,3-4H2,(H,18,19)(H,20,21)(H,10,13,14)(H2,15,16,17)",468.141683,-6.729375522865,-1.2381180197749995,5.491257503090001,2.8959890246860396
000000690,OC(=O)C1CCN=C(N1)C,C6H10N2O2,"InChI=1S/C6H10N2O2/c1-4-7-3-2-5(8-4)6(9)10/h5H,2-3H2,1H3,(H,7,8)(H,9,10)",142.1558,-6.66134706024,0.029932523554999868,6.691279583795,4.714565629318039
000000691,OC(=Cc1ccccc1)C(=O)O,C9H8O3,"InChI=1S/C9H8O3/c10-8(9(11)12)6-7-4-2-1-3-5-7/h1-6,10H,(H,11,12)",164.15802,-6.11711935924,-1.3796172220349998,4.737502137205,4.745675415565839
000000693,CC(=CCCC=C(CCC=C(CCC1OC1(C)C)C)C)CCC=C(CCC=C(C)C)C,C30H50O,"InChI=1S/C30H50O/c1-24(2)14-11-17-27(5)20-12-18-25(3)15-9-10-16-26(4)19-13-21-28(6)22-23-29-30(7,8)31-29/h14-16,20-21,29H,9-13,17-19,22-23H2,1-8H3",426.7174,-5.8477266472450005,0.764639919905,6.6123665671500005,2.0187652867089327
000000694,ON=Cc1cccnc1,C6H6N2O,"InChI=1S/C6H6N2O/c9-8-5-6-2-1-3-7-4-6/h1-5,9H",122.12464,-6.359300686185,-1.4612513771850004,4.898049308999999,1.9272092407717434
000000696,OC(C(C(=O)O)O)COP(=O)(O)O,C4H9O8P,"InChI=1S/C4H9O8P/c5-2(3(6)4(7)8)1-12-13(9,10)11/h2-3,5-6H,1H2,(H,7,8)(H2,9,10,11)",216.083221,-7.322583716955,-0.16871058730999966,7.153873129645,4.008272109700264
000000697,O=CC(C(COP(=O)(O)O)O)O,C4H9O7P,"InChI=1S/C4H9O7P/c5-1-3(6)4(7)2-11-12(8,9)10/h1,3-4,6-7H,2H2,(H2,8,9,10)",200.083821,-7.13482516011,-1.4694147927000003,5.66541036741,3.647389677549
000000698,Oc1ccc2c(c1)CCC1C2CCC2(C1CCC2=O)C,C18H22O2,"InChI=1S/C18H22O2/c1-18-9-8-14-13-5-3-12(19)10-11(13)2-4-15(14)16(18)6-7-17(18)20/h3,5,10,14-16,19H,2,4,6-9H2,1H3",270.36608,-5.700785167975,-0.4435455763149996,5.25723959166,1.8944442984001932
000000699,O=C1CCC2C1(C)CCC1C2CCc2c1ccc(c2)OS(=O)(=O)O,C18H22O5S,"InChI=1S/C18H22O5S/c1-18-9-8-14-13-5-3-12(23-24(20,21)22)10-11(13)2-4-15(14)16(18)6-7-17(18)19/h3,5,10,14-16H,2,4,6-9H2,1H3,(H,20,21,22)",350.42928,-6.4218868718,-0.57688136306,5.84500550874,3.009869528151345
000000700,NCCO,C2H7NO,"InChI=1S/C2H7NO/c3-1-2-4/h4H,1-3H2",61.08308,-6.40556004077,1.5673757788799998,7.97293581965,1.8089752568976725
000000701,CCOC(=O)C(C(=O)C)C,C7H12O3,"InChI=1S/C7H12O3/c1-4-10-7(9)5(2)6(3)8/h5H,4H2,1-3H3",144.16838,-6.710327553330001,-0.6557943797050001,6.054533173625001,2.473549637319009
000000702,CCO,C2H6O,"InChI=1S/C2H6O/c1-2-3/h3H,2H2,1H3",46.06844,-7.066796697485,2.0952766488499996,9.162073346335,1.6940154468085586
000000706,CC(=CCOP(=O)(OP(=O)(O)O)O)CCC=C(CCC=C(C)C)C,C15H28O7P2,"InChI=1S/C15H28O7P2/c1-13(2)7-5-8-14(3)9-6-10-15(4)11-12-21-24(19,20)22-23(16,17)18/h7,9,11H,5-6,8,10,12H2,1-4H3,(H,19,20)(H2,16,17,18)",382.326142,-5.929360802395,-0.4054496372449998,5.52391116515,3.995358418112323
000000709,COc1cc(C=CC(=O)O)ccc1O,C10H10O4,"InChI=1S/C10H10O4/c1-14-9-6-7(2-4-8(9)11)3-5-10(12)13/h2-6,11H,1H3,(H,12,13)",194.184,-5.81779412369,-1.5864237484150001,4.231370375275,6.313962210779852
000000710,O=c1[nH]c(=O)c2c(n1)n(CC(C(C(COP(=O)(O)O)O)O)O)c1c(n2)cc(c(c1)C)C,C17H21N4O9P,"InChI=1S/C17H21N4O9P/c1-7-3-9-10(4-8(7)2)21(15-13(18-9)16(25)20-17(26)19-15)5-11(22)14(24)12(23)6-30-31(27,28)29/h3-4,11-12,14,22-24H,5-6H2,1-2H3,(H,20,25,26)(H2,27,28,29)",456.343801,-6.419165733295,-3.0123003250350004,3.40686540826,8.578443324357748
000000711,O=c1[nH]c(=O)c2c([nH]1)n(CC(C(C(COP(=O)(O)O)O)O)O)c1c([nH]2)cc(c(c1)C)C,C17H23N4O9P,"InChI=1S/C17H23N4O9P/c1-7-3-9-10(4-8(7)2)21(15-13(18-9)16(25)20-17(26)19-15)5-11(22)14(24)12(23)6-30-31(27,28)29/h3-4,11-12,14,18,22-24H,5-6H2,1-2H3,(H2,27,28,29)(H2,19,20,25,26)",458.359681,-4.76199238375,-0.88709115263,3.87490123112,8.119458057201479
000000712,C=O,CH2O,InChI=1S/CH2O/c1-2/h1H2,30.02598,-7.29809347041,-1.1700895571499998,6.12800391326,2.2202840001175526
000000713,NC=O,CH3NO,"InChI=1S/CH3NO/c2-1-3/h1H,(H2,2,3)",45.04062,-6.98788368084,0.5932081940899998,7.581091874929999,3.6399166128445857
000000716,OCC1OC(C(C1O)O)(O)CO,C6H12O6,"InChI=1S/C6H12O6/c7-1-3-4(9)5(10)6(11,2-8)12-3/h3-5,7-11H,1-2H2",180.15588,-6.6205299826649995,0.5850447785749999,7.205574761239999,2.6525380652906754
000000717,OCC1OC(C(C1O)O)(O)COP(=O)(O)O,C6H13O9P,"InChI=1S/C6H13O9P/c7-1-3-4(8)5(9)6(10,15-3)2-14-16(11,12)13/h3-5,7-10H,1-2H2,(H2,11,12,13)",260.135781,-6.794682846985,0.4571512688399997,7.251834115825,3.9258278353413565
000000718,OC1C(COP(=O)(O)O)OC(C1O)(O)COP(=O)(O)O,C6H14O12P2,"InChI=1S/C6H14O12P2/c7-4-3(1-16-19(10,11)12)18-6(9,5(4)8)2-17-20(13,14)15/h3-5,7-9H,1-2H2,(H2,10,11,12)(H2,13,14,15)",340.115682,-7.50489999679,0.5442277010000005,8.04912769779,2.1316226739836015
000000719,OCC1(O)OC(C(C1O)O)COP(=O)(O)O,C6H13O9P,"InChI=1S/C6H13O9P/c7-2-6(10)5(9)4(8)3(15-6)1-14-16(11,12)13/h3-5,7-10H,1-2H2,(H2,11,12,13)",260.135781,-6.685837306785,0.5659968090399996,7.251834115825,1.6991604116065677
000000720,OCC1OC(NCCCCC(C(=O)O)N)C(=O)C(C1O)O,C12H22N2O7,"InChI=1S/C12H22N2O7/c13-6(12(19)20)3-1-2-4-14-11-10(18)9(17)8(16)7(5-15)21-11/h6-9,11,14-17H,1-5,13H2,(H,19,20)",306.31228,-6.468146226385,-1.0068212468499995,5.461324979535,3.94476265588717
000000721,OC(=O)C(CCCCNC1OC(COP(=O)(O)O)C(C(C1=O)O)O)N,C12H23N2O10P,"InChI=1S/C12H23N2O10P/c13-6(12(18)19)3-1-2-4-14-11-10(17)9(16)8(15)7(24-11)5-23-25(20,21)22/h6-9,11,14-16H,1-5,13H2,(H,18,19)(H2,20,21,22)",386.292181,-6.26950311552,-1.096618817515,5.172884298005,5.297898495698931
000000722,OCC1OC(C(C1O)O)(O)C(=O)O,C6H10O7,"InChI=1S/C6H10O7/c7-1-2-3(8)4(9)6(12,13-2)5(10)11/h2-4,7-9,12H,1H2,(H,10,11)",194.1394,-7.208295899745001,0.03809593906999975,7.246391838815001,5.030341232853593
000000723,OC(=O)C=CC(=O)O,C4H4O4,"InChI=1S/C4H4O4/c5-3(6)1-2-4(7)8/h1-2H,(H,5,6)(H,7,8)",116.07216,-8.024637451245,-2.8381474607149997,5.186489990530001,4.4294469180700204e-05
000000724,OC(=O)C(COP(=O)(O)O)O,C3H7O7P,"InChI=1S/C3H7O7P/c4-2(3(5)6)1-10-11(7,8)9/h2,4H,1H2,(H,5,6)(H2,7,8,9)",186.057241,-7.714427661675,-0.18231627983499976,7.53211138184,4.73524431813122
000000725,[O-]C(=O)CCC[N+](C)(C)C,C7H15NO2,"InChI=1S/C7H15NO2/c1-8(2,3)6-4-5-7(9)10/h4-6H2,1-3H3",145.1995,-4.41368665511,0.8163415514999999,5.23002820661,12.033525663531117
000000727,ClC1C(Cl)C(Cl)C(C(C1Cl)Cl)Cl,C6H6Cl6,InChI=1S/C6H6Cl6/c7-1-2(8)4(10)6(12)5(11)3(1)9/h1-6H,290.82984,-7.66816830709,-0.8544374905699996,6.813730816520001,2.1795906610531253
000000728,ClC1C=C(Cl)C(C(C1Cl)Cl)Cl,C6H5Cl5,"InChI=1S/C6H5Cl5/c7-2-1-3(8)5(10)6(11)4(2)9/h1-2,4-6H",254.3689,-7.47768861174,-1.6789424575850003,5.798746154154999,1.9814642770037516
000000729,O=CC(COP(=O)(O)O)O,C3H7O6P,"InChI=1S/C3H7O6P/c4-1-3(5)2-9-10(6,7)8/h1,3,5H,2H2,(H2,6,7,8)",170.057841,-7.14026743712,-0.9850521388100004,6.15521529831,3.611912540265891
000000730,OC1C(COP(=O)(OP(=O)(O)O)O)OC(C1O)n1cnc2c1[nH]c(N)nc2=O,C10H15N5O11P2,"InChI=1S/C10H15N5O11P2/c11-10-13-7-4(8(18)14-10)12-2-15(7)9-6(17)5(16)3(25-9)1-24-28(22,23)26-27(19,20)21/h2-3,5-6,9,16-17H,1H2,(H,22,23)(H2,19,20,21)(H3,11,13,14,18)",443.200522,-5.706227444985,-0.5904870555850001,5.1157403894,13.864732468753552
000000734,CC(=CCOP(=O)(OP(=O)(O)O)O)CCC=C(C)C,C10H20O7P2,"InChI=1S/C10H20O7P2/c1-9(2)5-4-6-10(3)7-8-16-19(14,15)17-18(11,12)13/h5,7H,4,6,8H2,1-3H3,(H,14,15)(H2,11,12,13)",314.209122,-6.00283154203,-0.41089191425500005,5.591939627775,2.642838677682768
000000735,CC(=CCCC(=CCOP(=O)(OP(=O)(O)O)O)C)CCC=C(CCC=C(C)C)C,C20H36O7P2,"InChI=1S/C20H36O7P2/c1-17(2)9-6-10-18(3)11-7-12-19(4)13-8-14-20(5)15-16-26-29(24,25)27-28(21,22)23/h9,11,13,15H,6-8,10,12,14,16H2,1-5H3,(H,24,25)(H2,21,22,23)",450.443162,-5.776977046114999,-0.10068212468500004,5.676294921429999,1.0972394172531352
000000736,OCC1OC(=O)C(C(C1O)O)O,C6H10O6,"InChI=1S/C6H10O6/c7-1-2-3(8)4(9)5(10)6(11)12-2/h2-5,7-10H,1H2",178.14,-7.240949561805,-0.6612366567150003,6.57971290509,2.482454369613065
000000737,OC1C(COP(=O)(O)O)OC(C(C1O)O)OP(=O)(O)O,C6H14O12P2,"InChI=1S/C6H14O12P2/c7-3-2(1-16-19(10,11)12)17-6(5(9)4(3)8)18-20(13,14)15/h2-9H,1H2,(H2,10,11,12)(H2,13,14,15)",340.115682,-7.2191804537649995,-0.21496994189500018,7.004210511869999,6.370488797714033
000000738,NC(=O)CCC(C(=O)O)N,C5H10N2O3,"InChI=1S/C5H10N2O3/c6-3(5(9)10)1-2-4(7)8/h3H,1-2,6H2,(H2,7,8)(H,9,10)",146.1445,-6.342973855155,-0.2557870194699996,6.087186835685,6.6664871387696385
000000739,OCC1OC(O)C(C(C1O)O)N,C6H13NO5,"InChI=1S/C6H13NO5/c7-3-5(10)4(9)2(1-8)12-6(3)11/h2-6,8-11H,1,7H2",179.17112,-6.55794379705,1.63812538001,8.19606917706,2.4451914206838694
000000740,OCC1OC(OP(=O)(O)O)C(C(C1O)O)N,C6H14NO8P,"InChI=1S/C6H14NO8P/c7-3-5(10)4(9)2(1-8)14-6(3)15-16(11,12)13/h2-6,8-10H,1,7H2,(H2,11,12,13)",259.151021,-6.933460910740001,0.3156520665800002,7.249112977320001,3.22858200285311
000000742,O=CC(CCC(=O)O)N,C5H9NO3,"InChI=1S/C5H9NO3/c6-4(3-7)1-2-5(8)9/h3-4H,1-2,6H2,(H,8,9)",131.12986,-6.38923320974,-0.9496773382450003,5.439555871495,3.5584540274568677
000000743,OC(=O)CCCC(=O)O,C5H8O4,"InChI=1S/C5H8O4/c6-4(7)2-1-3-5(8)9/h1-3H2,(H,6,7)(H,8,9)",132.11462,-7.43959267267,-0.0897975706649996,7.349795102005,2.7938837838288837
000000745,SCC(C(=O)NCC(=O)O)NC(=O)CCC(C(=O)O)N,C10H17N3O6S,"InChI=1S/C10H17N3O6S/c11-5(10(18)19)1-2-7(14)13-6(4-20)9(17)12-3-8(15)16/h5-6,20H,1-4,11H2,(H,12,17)(H,13,14)(H,15,16)(H,18,19)",307.32348,-6.49263647293,-0.62041957914,5.87221689379,2.4864400171003522
000000746,SSCC(C(=O)NCC(=O)O)NC(=O)CCC(C(=O)O)N,C10H17N3O6S2,"InChI=1S/C10H17N3O6S2/c11-5(10(18)19)1-2-7(14)13-6(4-21-20)9(17)12-3-8(15)16/h5-6,20H,1-4,11H2,(H,12,17)(H,13,14)(H,15,16)(H,18,19)",339.38848,-6.560664935555001,-1.74697092021,4.813694015345001,5.9864666813921215
000000748,O=C(NC(C(=O)NCC(=O)O)CSS(=O)(=O)O)CCC(C(=O)O)N,C10H17N3O9S2,"InChI=1S/C10H17N3O9S2/c11-5(10(18)19)1-2-7(14)13-6(4-23-24(20,21)22)9(17)12-3-8(15)16/h5-6H,1-4,11H2,(H,12,17)(H,13,14)(H,15,16)(H,18,19)(H,20,21,22)",387.38668,-6.5116844424650004,-1.825883936855,4.6858005056100005,8.217198207619736
000000749,NCCCCNCCCNC(=O)CNC(=O)C(NC(=O)CCC(C(=O)O)N)CS,C17H34N6O5S,"InChI=1S/C17H34N6O5S/c18-6-1-2-7-20-8-3-9-21-15(25)10-22-16(26)13(11-29)23-14(24)5-4-12(19)17(27)28/h12-13,20,29H,1-11,18-19H2,(H,21,25)(H,22,26)(H,23,24)(H,27,28)",434.55406,-6.065417727644999,-0.88709115263,5.178326575014999,5.4925774833039
000000750,NCC(=O)O,C2H5NO2,"InChI=1S/C2H5NO2/c3-1-2(4)5/h1,3H2,(H,4,5)",75.0666,-6.865432448115,0.4000073602349996,7.26543980835,5.495484187912199