mol_id,SMILES,formula,inchi,mass,HOMO(eV),LUMO(eV),GAP(eV),dipole_moment
000000504,C1N=CNC1=O,C3H4N2O,"InChI=1S/C3H4N2O/c6-3-1-4-2-5-3/h2H,1H2,(H,4,5,6)",84.07666,-6.832778786055,-0.6503521026949999,6.18242668336,2.370668371808254
000000505,O=c1[nH]c(NC2OC(C(C2O)O)COP(=O)(O)O)c(c(=O)[nH]1)N,C9H15N4O9P,"InChI=1S/C9H15N4O9P/c10-3-6(12-9(17)13-7(3)16)11-8-5(15)4(14)2(22-8)1-21-23(18,19)20/h2,4-5,8,14-15H,1,10H2,(H2,18,19,20)(H3,11,12,13,16,17)",354.210561,-6.125282774755,-0.7809667509349998,5.34431602382,5.23610430293114
000000507,OCC(COP(=O)(OP(=O)(OCC1OC(C(C1O)O)n1ccc(nc1=O)N)O)O)O,C12H21N3O13P2,"InChI=1S/C12H21N3O13P2/c13-8-1-2-15(12(20)14-8)11-10(19)9(18)7(27-11)5-26-30(23,24)28-29(21,22)25-4-6(17)3-16/h1-2,6-7,9-11,16-19H,3-5H2,(H,21,22)(H,23,24)(H2,13,14,20)",477.254962,-6.092629112695,-1.08301312499,5.009615987705,7.989593299176311
000000510,OP1(=O)OP(=O)(O)OP(=O)(O1)O,H3O9P3,"InChI=1S/H3O9P3/c1-10(2)7-11(3,4)9-12(5,6)8-10/h(H,1,2)(H,3,4)(H,5,6)",239.939703,-9.162073346335001,-0.9714464462850003,8.19062690005,2.0632922432411265
000000512,O=C(c1ccccc1)CC=CC(=O)C(=O)O,C12H10O4,"InChI=1S/C12H10O4/c13-10(9-5-2-1-3-6-9)7-4-8-11(14)12(15)16/h1-6,8H,7H2,(H,15,16)",218.2054,-7.023258481405,-2.8327051837050004,4.190553297699999,3.2922350640710634
000000513,OC(=O)CC(C(C(=O)O)(O)C)C(=O)O,C7H10O7,"InChI=1S/C7H10O7/c1-7(14,6(12)13)3(5(10)11)2-4(8)9/h3,14H,2H2,1H3,(H,8,9)(H,10,11)(H,12,13)",206.1501,-7.409660149115,-1.2816562358550003,6.12800391326,4.8914258944097275
000000514,OC1C(COP(=O)(OC(=O)c2cccc(c2O)O)O)OC(C1O)n1cnc2c1ncnc2N,C17H18N5O10P,"InChI=1S/C17H18N5O10P/c18-14-10-15(20-5-19-14)22(6-21-10)16-13(26)12(25)9(31-16)4-30-33(28,29)32-17(27)7-2-1-3-8(23)11(7)24/h1-3,5-6,9,12-13,16,23-26H,4H2,(H,28,29)(H2,18,19,20)",483.326081,-6.00283154203,-2.108882341375,3.893949200655,4.362463678893728
000000515,OC(=O)CC(C(C(=O)O)C)(C(=O)O)O,C7H10O7,"InChI=1S/C7H10O7/c1-3(5(10)11)7(14,6(12)13)2-4(8)9/h3,14H,2H2,1H3,(H,8,9)(H,10,11)(H,12,13)",206.1501,-7.480409750244999,-1.074849709475,6.405560040769999,1.1788850366524295
000000516,OC(=O)CC(CCOP(=O)(OP(=O)(O)O)O)(O)C,C6H14O10P2,"InChI=1S/C6H14O10P2/c1-6(9,4-5(7)8)2-3-15-18(13,14)16-17(10,11)12/h9H,2-4H2,1H3,(H,7,8)(H,13,14)(H2,10,11,12)",308.116882,-7.03686417393,-0.5796025015649997,6.457261672365,4.551672613904256
000000519,OC(=O)CC(C(C(=O)COP(=O)(O)O)O)O,C6H11O9P,"InChI=1S/C6H11O9P/c7-3(1-5(9)10)6(11)4(8)2-15-16(12,13)14/h3,6-7,11H,1-2H2,(H,9,10)(H2,12,13,14)",258.119901,-7.27088208536,-1.760576612735,5.510305472625,2.462530956008269
000000520,CCCCCCCCCCCCCCCC(C(COP(=O)(O)O)N)O,C18H40NO5P,"InChI=1S/C18H40NO5P/c1-2-3-4-5-6-7-8-9-10-11-12-13-14-15-18(20)17(19)16-24-25(21,22)23/h17-18,20H,2-16,19H2,1H3,(H2,21,22,23)",381.487661,-5.89942827884,0.47347809987000034,6.372906378710001,3.9073416303448565
000000523,O=CCCC(=O)C(=O)O,C5H6O4,"InChI=1S/C5H6O4/c6-3-1-2-4(7)5(8)9/h3H,1-2H2,(H,8,9)",130.09874,-7.398775595095,-2.4626303470249997,4.93614524807,4.037023634730419
000000524,OC(=O)C(=O)C(C(=O)O)O,C4H4O6,"InChI=1S/C4H4O6/c5-1(3(7)8)2(6)4(9)10/h1,5H,(H,7,8)(H,9,10)",148.07096,-7.728033354199999,-3.0694442336400005,4.6585891205599985,4.376531651168308
000000525,OC(=O)CC(C(=O)O)O,C4H6O5,"InChI=1S/C4H6O5/c5-2(4(8)9)1-3(6)7/h2,5H,1H2,(H,6,7)(H,8,9)",134.08744,-7.635514645030001,-0.8571586290750002,6.7783560159550005,4.827578200405872
000000527,CCC=O,C3H6O,"InChI=1S/C3H6O/c1-2-3-4/h3H,2H2,1H3",58.07914,-6.93890318775,-0.5714390860499998,6.3674641017,2.506258052463473
000000528,CC(=O)OCCC(C(=O)O)N,C6H11NO4,"InChI=1S/C6H11NO4/c1-4(8)11-3-2-5(7)6(9)10/h5H,2-3,7H2,1H3,(H,9,10)",161.15584,-6.756586907915,-0.07619187814000039,6.680395029774999,2.015979904870334
000000529,OC(=O)COP(=O)(O)O,C2H5O6P,"InChI=1S/C2H5O6P/c3-2(4)1-8-9(5,6)7/h1H2,(H,3,4)(H2,5,6,7)",156.031261,-7.70626424616,-0.90886026067,6.79740398549,5.4753258579340285
000000530,N=CN1C(CNc2ccc(cc2)C(=O)NC(C(=O)O)CCC(=O)O)CNc2c1c(=O)nc([nH]2)N,C20H24N8O6,"InChI=1S/C20H24N8O6/c21-9-28-12(8-24-16-15(28)18(32)27-20(22)26-16)7-23-11-3-1-10(2-4-11)17(31)25-13(19(33)34)5-6-14(29)30/h1-4,9,12-13,21,23H,5-8H2,(H,25,31)(H,29,30)(H,33,34)(H4,22,24,26,27,32)",472.45456,-5.526632303655,-0.7238228423299997,4.802809461325,10.326569914014915
000000535,OC(=O)C1(N)CC1,C4H7NO2,"InChI=1S/C4H7NO2/c5-4(1-2-4)3(6)7/h1-2,5H2,(H,6,7)",101.10388,-6.745702353895,0.42993988379000037,7.175642237685,5.598504578649016
000000540,OC#N,CHNO,InChI=1S/CHNO/c2-1-3/h3H,43.02474,-8.443692781015,-0.12517237123000058,8.318520409785,3.9071231006547515
000000541,O=Cc1ccc(cc1)[N+](=O)[O-],C7H5NO3,InChI=1S/C7H5NO3/c9-5-6-1-3-7(4-2-6)8(10)11/h1-5H,151.1195,-7.583813013435,-3.0177426020450007,4.566070411389999,2.65126307845506
000000542,OC(=O)CC1C=CC(=O)O1,C6H6O4,"InChI=1S/C6H6O4/c7-5(8)3-4-1-2-6(9)10-4/h1-2,4H,3H2,(H,7,8)",142.10944,-7.589255290444999,-1.5102318702749997,6.0790234201699995,2.3519088837884428
000000543,OC(=O)CC1(C=CC(=O)O1)C(=O)O,C7H6O6,"InChI=1S/C7H6O6/c8-4(9)3-7(6(11)12)2-1-5(10)13-7/h1-2H,3H2,(H,8,9)(H,11,12)",186.11894,-7.82055206337,-2.16602624998,5.65452581339,2.596858107729608
000000546,OC(=O)CP(=O)(O)O,C2H5O5P,"InChI=1S/C2H5O5P/c3-2(4)1-8(5,6)7/h1H2,(H,3,4)(H2,5,6,7)",140.031861,-7.3851699025699995,-0.11156667870499959,7.273603223865,5.478476510437368
000000547,OC(=O)Cc1ccc(c(c1)O)O,C8H8O4,"InChI=1S/C8H8O4/c9-6-2-1-5(3-7(6)10)4-8(11)12/h1-3,9-10H,4H2,(H,11,12)",168.14672,-5.97562015698,-0.4625935458499999,5.51302661113,5.817805574048517
000000548,OC=C(CC(=O)O)C=CC(=O)C(=O)O,C8H8O6,"InChI=1S/C8H8O6/c9-4-5(3-7(11)12)1-2-6(10)8(13)14/h1-2,4,9H,3H2,(H,11,12)(H,13,14)",200.14552,-6.5470592430300005,-2.6830425659299997,3.864016677100001,2.39719117581598
000000550,OC(=O)CC(C(=O)O)C=CC(=O)C(=O)O,C8H8O7,"InChI=1S/C8H8O7/c9-5(8(14)15)2-1-4(7(12)13)3-6(10)11/h1-2,4H,3H2,(H,10,11)(H,12,13)(H,14,15)",216.14492,-7.401496733600001,-3.1265881422450006,4.2749085913550005,3.3457226357476197
000000551,OC(=O)CC=CC=C(C(=O)O)O,C7H8O5,"InChI=1S/C7H8O5/c8-5(7(11)12)3-1-2-4-6(9)10/h1-3,8H,4H2,(H,9,10)(H,11,12)",172.13542,-6.560664935555001,-1.77418230526,4.7864826302950005,8.42779618645367
000000553,OC(CC(=O)C(=O)O)CCC(=O)O,C7H10O6,"InChI=1S/C7H10O6/c8-4(1-2-6(10)11)3-5(9)7(12)13/h4,8H,1-3H2,(H,10,11)(H,12,13)",190.1507,-7.145709714130001,-3.229991405435,3.9157183086950007,5.841391911004859
000000554,[O-]C(=O)C1CCC[N+]1(C)C,C7H13NO2,"InChI=1S/C7H13NO2/c1-8(2)5-3-4-6(8)7(9)10/h6H,3-5H2,1-2H3",143.18362,-5.13750949744,0.9605618922649999,6.098071389705,10.09752855723627
000000556,O=CCCC(C(=O)O)NC(=O)CCC(=O)O,C9H13NO6,"InChI=1S/C9H13NO6/c11-5-1-2-6(9(15)16)10-7(12)3-4-8(13)14/h5-6H,1-4H2,(H,10,12)(H,13,14)(H,15,16)",231.20262,-7.08040239001,-1.2353968812699998,5.84500550874,8.256924646516886
000000557,CN1CCCC1C(=O)O,C6H11NO2,"InChI=1S/C6H11NO2/c1-7-4-2-3-5(7)6(8)9/h5H,2-4H2,1H3,(H,8,9)",129.15704,-6.430050287315001,0.3510268671450003,6.781077154460001,5.25660255034761
000000558,NC(=NCCCC(=O)C(=O)O)N,C6H11N3O3,"InChI=1S/C6H11N3O3/c7-6(8)9-3-1-2-4(10)5(11)12/h1-3H2,(H,11,12)(H4,7,8,9)",173.16984,-5.853168924255001,-2.6122929648,3.2408759594550007,2.7095629430596366
000000559,O=CCCCN=C(N)N,C5H11N3O,"InChI=1S/C5H11N3O/c6-5(7)8-3-1-2-4-9/h4H,1-3H2,(H4,6,7,8)",129.16034,-6.130725051765,-0.5714390860499998,5.559285965715,4.5799063439096654
000000560,OCC(=O)C(C(CC(=O)O)O)O,C6H10O6,"InChI=1S/C6H10O6/c7-2-4(9)6(12)3(8)1-5(10)11/h3,6-8,12H,1-2H2,(H,10,11)",178.14,-6.89536497167,-1.2653294048249997,5.630035566845001,3.5816881270772307
000000561,CSCCC(=O)C(=O)COP(=O)(O)O,C6H11O6PS,"InChI=1S/C6H11O6PS/c1-14-3-2-5(7)6(8)4-12-13(9,10)11/h2-4H2,1H3,(H2,9,10,11)",242.186701,-6.364742963195,-2.5878027182550003,3.7769402449399996,6.314240579873878
000000562,CSCCC(=O)C(=CO)O,C6H10O3S,"InChI=1S/C6H10O3S/c1-10-3-2-5(8)6(9)4-7/h4,7,9H,2-3H2,1H3",162.2068,-5.771534769105,-1.4884627622349997,4.28307200687,2.373670793700129
000000563,CSCCC(=O)O,C4H8O2S,"InChI=1S/C4H8O2S/c1-7-3-2-4(5)6/h2-3H2,1H3,(H,5,6)",120.17012,-6.174263267845,0.05170163159499985,6.22596489944,2.7907620780073676
000000564,NCCCCCC(=O)O,C6H13NO2,"InChI=1S/C6H13NO2/c7-5-3-1-2-4-6(8)9/h1-5,7H2,(H,8,9)",131.17292,-6.277666531035,0.27755612751000047,6.555222658545,4.171860077119797
000000568,c1ccc2c(c1)oc1c2cccc1,C12H8O,InChI=1S/C12H8O/c1-3-7-11-9(5-1)10-6-2-4-8-12(10)13-11/h1-8H,168.19132,-6.00283154203,-0.9578407537600002,5.04499078827,0.8390402241519771
000000569,Oc1ccccc1c1cccc(c1O)O,C12H10O3,"InChI=1S/C12H10O3/c13-10-6-2-1-4-8(10)9-5-3-7-11(14)12(9)15/h1-7,13-15H",202.206,-5.3796908243849995,-0.5823236400700003,4.797367184314999,4.357585181785663
000000570,OC(=CC=CC(=O)C(=O)O)c1ccccc1,C12H10O4,"InChI=1S/C12H10O4/c13-10(9-5-2-1-3-6-9)7-4-8-11(14)12(15)16/h1-8,13H,(H,15,16)",218.2054,-6.155215298310001,-2.3755539148650002,3.7796613834450006,8.627409101870967
000000571,SCCC(SC(=O)CCC(=O)O)CCCCC(=O)N,C12H21NO4S2,"InChI=1S/C12H21NO4S2/c13-10(14)4-2-1-3-9(7-8-18)19-12(17)6-5-11(15)16/h9,18H,1-8H2,(H2,13,14)(H,15,16)",307.42944,-6.397396625255,-1.4367611306399999,4.960635494615,5.827725436008547
000000572,O=CN(CCCP(=O)(O)O)O,C4H10NO5P,"InChI=1S/C4H10NO5P/c6-4-5(7)2-1-3-11(8,9)10/h4,7H,1-3H2,(H2,8,9,10)",183.099661,-6.95523001878,-0.25850815797500015,6.696721860805,3.440391951694167
000000578,OCC1OC(OC2C(O)C(O)C(C(C2O)O)O)C(C(C1O)O)N,C12H23NO10,"InChI=1S/C12H23NO10/c13-3-5(16)4(15)2(1-14)22-12(3)23-11-9(20)7(18)6(17)8(19)10(11)21/h2-12,14-21H,1,13H2",341.31172,-6.370185240205,1.03947490891,7.409660149115,4.145466220404528
000000579,OCC1OC(OC2C(O)C(O)C(C(C2O)O)O)C(C(C1O)O)NC(=O)C,C14H25NO11,"InChI=1S/C14H25NO11/c1-3(17)15-5-7(19)6(18)4(2-16)25-14(5)26-13-11(23)9(21)8(20)10(22)12(13)24/h4-14,16,18-24H,2H2,1H3,(H,15,17)",383.3484,-6.500799888445,0.13333578674499957,6.63413567519,6.864261559049378
000000580,SCC(C(=O)NC1C(OC(C(C1O)O)CO)OC1C(O)C(O)C(C(C1O)O)O)NC(=O)C,C17H30N2O12S,"InChI=1S/C17H30N2O12S/c1-4(21)18-5(3-32)16(29)19-7-9(23)8(22)6(2-20)30-17(7)31-15-13(27)11(25)10(24)12(26)14(15)28/h5-15,17,20,22-28,32H,2-3H2,1H3,(H,18,21)(H,19,29)",486.4913,-6.54161696602,-0.34830572863999976,6.1933112373800006,5.743799869581286
000000581,SCC(C(=O)O)NC(=O)C,C5H9NO3S,"InChI=1S/C5H9NO3S/c1-3(7)6-4(2-10)5(8)9/h4,10H,2H2,1H3,(H,6,7)(H,8,9)",163.19486,-6.49807874994,-0.34830572863999976,6.149773021300001,3.6480856559908243
000000584,OC(=O)C1(O)C=Cc2c(O1)cccc2,C10H8O4,"InChI=1S/C10H8O4/c11-9(12)10(13)6-5-7-3-1-2-4-8(7)14-10/h1-6,13H,(H,11,12)",192.16812,-6.10623480522,-1.3333578674500002,4.7728769377699996,5.17767544988405
000000585,OC(=O)C(=O)C=Cc1ccccc1O,C10H8O4,"InChI=1S/C10H8O4/c11-8-4-2-1-3-7(8)5-6-9(12)10(13)14/h1-6,11H,(H,13,14)",192.16812,-6.40011776376,-2.67215801191,3.72795975185,6.9554372931113395
000000586,OC(=O)CN(C(=N)N)C,C4H9N3O2,"InChI=1S/C4H9N3O2/c1-7(4(5)6)2-3(8)9/h2H2,1H3,(H3,5,6)(H,8,9)",131.13316,-6.500799888445,-0.040817077575000305,6.45998281087,4.18600306843533
000000587,OC(=O)CN(C(=NP(=O)(O)O)N)C,C4H10N3O5P,"InChI=1S/C4H10N3O5P/c1-7(2-3(8)9)4(5)6-13(10,11)12/h2H2,1H3,(H,8,9)(H4,5,6,10,11,12)",211.113061,-7.148430852635,-0.6149773021299998,6.533453550505,2.0719445449359886
000000588,O=C1N=C(N(C1)C)N,C4H7N3O,"InChI=1S/C4H7N3O/c1-7-2-3(8)6-4(7)5/h2H2,1H3,(H2,5,6,8)",113.11788,-6.386512071235,-0.47892037687999967,5.907591694355,6.625068752872155
000000589,[O-]C(=O)C=CC[N+](C)(C)C,C7H13NO2,"InChI=1S/C7H13NO2/c1-8(2,3)6-4-5-7(9)10/h4-5H,6H2,1-3H3",143.18362,-4.60960862747,-0.06258618561500029,4.547022441855,14.412728703536919
000000593,OC1C(COP(=O)(OP(=O)(OP(=O)(O)O)O)O)OC(C1O)n1ccc(nc1=O)N,C9H16N3O14P3,"InChI=1S/C9H16N3O14P3/c10-5-1-2-12(9(15)11-5)8-7(14)6(13)4(24-8)3-23-28(19,20)26-29(21,22)25-27(16,17)18/h1-2,4,6-8,13-14H,3H2,(H,19,20)(H,21,22)(H2,10,11,15)(H2,16,17,18)",483.156323,-6.321204747115,-1.2245123272500003,5.096692419865,8.833954111440924
000000594,NC(C(=O)O)CS,C3H7NO2S,"InChI=1S/C3H7NO2S/c4-2(1-7)3(5)6/h2,7H,1,4H2,(H,5,6)",121.15818,-6.783798292965,-0.0897975706649996,6.6940007223,2.0108785176735564
000000595,NC(C(=O)O)CSSCC(C(=O)O)N,C6H12N2O4S2,"InChI=1S/C6H12N2O4S2/c7-3(5(9)10)1-13-14-2-4(8)6(11)12/h3-4H,1-2,7-8H2,(H,9,10)(H,11,12)",240.30048,-6.947066603265001,-1.450366823165,5.496699780100001,2.408612180840037
000000596,OCC1OC(C(C1O)O)n1ccc(nc1=O)N,C9H13N3O5,"InChI=1S/C9H13N3O5/c10-5-1-2-12(9(16)11-5)8-7(15)6(14)4(3-13)17-8/h1-2,4,6-8,13-15H,3H2,(H2,10,11,16)",243.21662,-6.25317628449,-1.1455993106050002,5.107576973885,4.95709643582642
000000597,Nc1ccnc(=O)[nH]1,C4H5N3O,"InChI=1S/C4H5N3O/c5-3-1-2-6-4(8)7-3/h1-2H,(H3,5,6,7,8)",111.102,-5.89398600183,-1.0231480778800002,4.87083792395,7.771539084018622
000000598,SCCS(=O)(=O)O,C2H6O3S2,"InChI=1S/C2H6O3S2/c3-7(4,5)2-1-6/h6H,1-2H2,(H,3,4,5)",142.19724,-7.072238974495001,-0.035374800565000086,7.036864173930001,2.5592489060062134
000000599,OC(C(=O)O)CC(=O)C(=O)O,C5H6O6,"InChI=1S/C5H6O6/c6-2(4(8)9)1-3(7)5(10)11/h2,6H,1H2,(H,8,9)(H,10,11)",162.09754,-7.37972762556,-3.028627156065,4.351100469495,4.115598301217455
000000600,OC1C(COP(=O)(O)O)OC(=O)C(C1O)O,C6H11O9P,"InChI=1S/C6H11O9P/c7-3-2(1-14-16(11,12)13)15-6(10)5(9)4(3)8/h2-5,7-9H,1H2,(H2,11,12,13)",258.119901,-7.635514645030001,-1.0911765405049998,6.544338104525001,1.7234665656765726
000000601,CC(C(=O)O)NC(=O)C(N)C,C6H12N2O3,"InChI=1S/C6H12N2O3/c1-3(7)5(9)8-4(2)6(10)11/h3-4H,7H2,1-2H3,(H,8,9)(H,10,11)",160.17108,-6.7647503234299995,-0.19864311086500042,6.566107212564999,4.330920064246627
000000602,CC(C(=O)O)N,C3H7NO2,"InChI=1S/C3H7NO2/c1-2(4)3(5)6/h2H,4H2,1H3,(H,5,6)",89.09318,-6.680395029775,0.16054717179499978,6.84094220157,3.176105738323112
000000603,OCC(=O)C(C(C(COP(=O)(O)O)O)O)O,C6H13O9P,"InChI=1S/C6H13O9P/c7-1-3(8)5(10)6(11)4(9)2-15-16(12,13)14/h4-7,9-11H,1-2H2,(H2,12,13,14)",260.135781,-7.22734386928,-1.5837026099100004,5.64364125937,4.6354292680295535
000000604,OCC(C(C(C(C(=O)O)O)O)O)O,C6H12O7,"InChI=1S/C6H12O7/c7-1-2(8)3(9)4(10)5(11)6(12)13/h2-5,7-11H,1H2,(H,12,13)",196.15528,-7.12394060609,0.029932523554999868,7.1538731296449996,3.3382464232845366
000000606,OC(C(c1[nH]cnc1)O)COP(=O)(O)O,C6H11N2O6P,"InChI=1S/C6H11N2O6P/c9-5(2-14-15(11,12)13)6(10)4-1-7-3-8-4/h1,3,5-6,9-10H,2H2,(H,7,8)(H2,11,12,13)",238.135101,-6.19875351439,0.08435529365500027,6.283108808045,3.873108375346086
000000607,OC(C(C(=O)O)O)C(C(C(=O)O)O)O,C6H10O8,"InChI=1S/C6H10O8/c7-1(3(9)5(11)12)2(8)4(10)6(13)14/h1-4,7-10H,(H,11,12)(H,13,14)",210.1388,-7.221901592270001,-0.3727959751850003,6.849105617085001,1.5013961088367054
000000608,OCC(C1OC(=O)C(C1O)O)O,C6H10O6,"InChI=1S/C6H10O6/c7-1-2(8)5-3(9)4(10)6(11)12-5/h2-5,7-10H,1H2",178.14,-6.77563487745,-0.5932081940899998,6.18242668336,4.352188046613221
000000609,OC1OC(COP(=O)(O)O)C(C(C1N)O)O,C6H14NO8P,"InChI=1S/C6H14NO8P/c7-3-5(9)4(8)2(15-6(3)10)1-14-16(11,12)13/h2-6,8-10H,1,7H2,(H2,11,12,13)",259.151021,-6.990604819345001,0.9197448146899996,7.910349634035001,5.259738610399855
000000610,OC1OC(C(=O)O)C(C(C1O)O)O,C6H10O7,"InChI=1S/C6H10O7/c7-1-2(8)4(5(10)11)13-6(12)3(1)9/h1-4,6-9,12H,(H,10,11)",194.1394,-7.159315406655,-0.07347073963499984,7.08584466702,4.593162616615048
000000611,OC(=O)CCC(C(=O)O)N,C5H9NO4,"InChI=1S/C5H9NO4/c6-3(5(9)10)1-2-4(7)8/h3H,1-2,6H2,(H,7,8)(H,9,10)",147.12926,-6.604203151635,-0.7619187814000004,5.842284370234999,4.937552504221196
000000612,OC(=O)C(O)C,C3H6O3,"InChI=1S/C3H6O3/c1-2(4)3(5)6/h2,4H,1H3,(H,5,6)",90.07794,-7.074960113,0.19047969534999964,7.26543980835,4.241148343176645
000000614,OC(=O)C1CCCN1,C5H9NO2,"InChI=1S/C5H9NO2/c7-5(8)4-2-1-3-6-4/h4,6H,1-3H2,(H,7,8)",115.13046,-6.67767389127,0.27211385050000025,6.949787741770001,5.309307478497078
000000615,OCC(C(C(=O)COP(=O)(O)O)O)O,C5H11O8P,"InChI=1S/C5H11O8P/c6-1-3(7)5(9)4(8)2-13-14(10,11)12/h3,5-7,9H,1-2H2,(H2,10,11,12)",230.109801,-7.3770064870550005,-1.5918660254250003,5.78514046163,6.481613645660623
000000616,OCC(=O)C(C(C(C(COP(=O)(O)O)O)O)O)O,C7H15O10P,"InChI=1S/C7H15O10P/c8-1-3(9)5(11)7(13)6(12)4(10)2-17-18(14,15)16/h4-8,10-13H,1-2H2,(H2,14,15,16)",290.161761,-7.129382883100001,-1.7306440891800001,5.398738793920001,4.315134331217627
000000617,OCC(C(=O)O)N,C3H7NO3,"InChI=1S/C3H7NO3/c4-2(1-5)3(6)7/h2,5H,1,4H2,(H,6,7)",105.09258,-6.702164137815,0.3809593907000002,7.083123528515,4.240835751220389
000000618,OCC(C(C(C(COP(=O)(O)O)O)O)O)O,C6H15O9P,"InChI=1S/C6H15O9P/c7-1-3(8)5(10)6(11)4(9)2-15-16(12,13)14/h3-11H,1-2H2,(H2,12,13,14)",262.151661,-6.174263267845,-0.05170163159499985,6.12256163625,8.385433674949914
000000619,OCC(C(C(=O)CO)O)O,C5H10O5,"InChI=1S/C5H10O5/c6-1-3(8)5(10)4(9)2-7/h3,5-8,10H,1-2H2",150.1299,-6.767471461935,-1.0149846623650003,5.75248679957,2.9281935140335245
000000620,OC1CC(OC1COP(=O)(OP(=O)(O)O)O)n1cnc2c1ncnc2N,C10H15N5O9P2,"InChI=1S/C10H15N5O9P2/c11-9-8-10(13-3-12-9)15(4-14-8)7-1-5(16)6(23-7)2-22-26(20,21)24-25(17,18)19/h3-7,16H,1-2H2,(H,20,21)(H2,11,12,13)(H2,17,18,19)",411.201722,-6.03004292708,-0.8326683825299996,5.197374544550001,1.6175344738857964
000000621,OC1CC(OC1COP(=O)(O)O)n1cnc2c1ncnc2N,C10H14N5O6P,"InChI=1S/C10H14N5O6P/c11-9-8-10(13-3-12-9)15(4-14-8)7-1-5(16)6(21-7)2-20-22(17,18)19/h3-7,16H,1-2H2,(H2,11,12,13)(H2,17,18,19)",331.221821,-5.97562015698,-0.7782456124300001,5.19737454455,4.329663271147192
000000622,OC1CC(OC1COP(=O)(OP(=O)(OP(=O)(O)O)O)O)n1cnc2c1ncnc2N,C10H16N5O12P3,"InChI=1S/C10H16N5O12P3/c11-9-8-10(13-3-12-9)15(4-14-8)7-1-5(16)6(25-7)2-24-29(20,21)27-30(22,23)26-28(17,18)19/h3-7,16H,1-2H2,(H,20,21)(H,22,23)(H2,11,12,13)(H2,17,18,19)",491.181623,-6.005552680535001,-0.808178135985,5.197374544550001,3.2722375176244465
000000623,OC1CC(OC1COP(=O)(OP(=O)(O)O)O)n1ccc(nc1=O)N,C9H15N3O10P2,"InChI=1S/C9H15N3O10P2/c10-7-1-2-12(9(14)11-7)8-3-5(13)6(21-8)4-20-24(18,19)22-23(15,16)17/h1-2,5-6,8,13H,3-4H2,(H,18,19)(H2,10,11,14)(H2,15,16,17)",387.177022,-5.91575510987,-0.7319862578449996,5.1837688520250005,11.502354571143815
000000624,OC1CC(OC1COP(=O)(O)O)n1ccc(nc1=O)N,C9H14N3O7P,"InChI=1S/C9H14N3O7P/c10-7-1-2-12(9(14)11-7)8-3-5(13)6(19-8)4-18-20(15,16)17/h1-2,5-6,8,13H,3-4H2,(H2,10,11,14)(H2,15,16,17)",307.197121,-6.119840497745,-0.9442350612350001,5.17560543651,7.051606086832843
000000625,OC1CC(OC1COP(=O)(OP(=O)(OP(=O)(O)O)O)O)n1ccc(nc1=O)N,C9H16N3O13P3,"InChI=1S/C9H16N3O13P3/c10-7-1-2-12(9(14)11-7)8-3-5(13)6(23-8)4-22-27(18,19)25-28(20,21)24-26(15,16)17/h1-2,5-6,8,13H,3-4H2,(H,18,19)(H,20,21)(H2,10,11,14)(H2,15,16,17)",467.156923,-5.97562015698,-0.8925334296400003,5.0830867273399996,5.787320276013502
000000626,OCC(C(C(CC(=O)O)O)O)O,C6H12O6,"InChI=1S/C6H12O6/c7-2-4(9)6(12)3(8)1-5(10)11/h3-4,6-9,12H,1-2H2,(H,10,11)",180.15588,-6.78107715446,-0.3646325596700004,6.41644459479,4.275184104644033
000000627,OCC(C(C(=O)CC(=O)O)O)O,C6H10O6,"InChI=1S/C6H10O6/c7-2-4(9)6(12)3(8)1-5(10)11/h4,6-7,9,12H,1-2H2,(H,10,11)",178.14,-6.81917309353,-1.2027432192100003,5.61642987432,3.0706789835909256
000000629,CN(C(=N)N)CCC(CC(=O)NC1C=CC(OC1C(=O)O)n1ccc(=O)[nH]c1=O)N,C17H25N7O6,"InChI=1S/C17H25N7O6/c1-23(16(19)20)6-4-9(18)8-12(26)21-10-2-3-13(30-14(10)15(27)28)24-7-5-11(25)22-17(24)29/h2-3,5,7,9-10,13-14H,4,6,8,18H2,1H3,(H3,19,20)(H,21,26)(H,27,28)(H,22,25,29)",423.4237,-5.972899018475,-1.5047895932650004,4.46810942521,1.6696869511908512
000000630,OC1CC(O)(CC(=O)C1O)C(=O)O,C7H10O6,"InChI=1S/C7H10O6/c8-3-1-7(13,6(11)12)2-4(9)5(3)10/h3,5,8,10,13H,1-2H2,(H,11,12)",190.1507,-7.202853622735,-1.3877806375499997,5.815072985185,3.319562116863307
000000631,CCCCCCCCCCCCCCCC(=O)C(CO)N,C18H37NO2,"InChI=1S/C18H37NO2/c1-2-3-4-5-6-7-8-9-10-11-12-13-14-15-18(21)17(19)16-20/h17,20H,2-16,19H2,1H3",299.49188,-6.304877916085,-0.6721212107349999,5.63275670535,2.446332009951838
000000632,OC(=O)C1CCCC(=N1)C(=O)O,C7H9NO4,"InChI=1S/C7H9NO4/c9-6(10)4-2-1-3-5(8-4)7(11)12/h4H,1-3H2,(H,9,10)(H,11,12)",171.15066,-7.5429959358600005,-2.17146852699,5.3715274088700005,3.558043902906905
000000634,OCC1OC(CC1O)OP(=O)(O)O,C5H11O7P,"InChI=1S/C5H11O7P/c6-2-4-3(7)1-5(11-4)12-13(8,9)10/h3-7H,1-2H2,(H2,8,9,10)",214.110401,-7.006931650375,0.24490246545000005,7.251834115825,1.5147470228236133
000000635,OC1CC(C(O1)COP(=O)(O)O)O,C5H11O7P,"InChI=1S/C5H11O7P/c6-3-1-5(7)12-4(3)2-11-13(8,9)10/h3-7H,1-2H2,(H2,8,9,10)",214.110401,-6.813730816520001,-0.03809593906999975,6.775634877450001,3.6044137531980143