mol_id,SMILES,formula,inchi,mass,HOMO(eV),LUMO(eV),GAP(eV),dipole_moment
000003862,OC(=O)C(Cn1ccc(=O)c(c1)O)N,C8H10N2O4,"InChI=1S/C8H10N2O4/c9-5(8(13)14)3-10-2-1-6(11)7(12)4-10/h1-2,4-5,12H,3,9H2,(H,13,14)",198.176,-5.581055073755,-0.721101703825,4.85995336993,4.396495662927124
000003863,CC(=NCCCCC(C(=O)O)N)N,C8H17N3O2,"InChI=1S/C8H17N3O2/c1-6(9)11-5-3-2-4-7(10)8(12)13/h7H,2-5,10H2,1H3,(H2,9,11)(H,12,13)",187.23948,-6.168820990835,0.2557870194699996,6.424608010305,3.7145194769317067
000003864,COC(=O)C(CCCN=C(N[N+](=O)[O-])N)N,C7H15N5O4,"InChI=1S/C7H15N5O4/c1-16-6(13)5(8)3-2-4-10-7(9)11-12(14)15/h5H,2-4,8H2,1H3,(H3,9,10,11)",233.2251,-6.473588503395,-1.7360863661899995,4.737502137205,2.2614970860936348
000003865,CCCCCCCCCCCCCCCC(=O)NC(C(=O)O)COP(=O)(O)O,C19H38NO7P,"InChI=1S/C19H38NO7P/c1-2-3-4-5-6-7-8-9-10-11-12-13-14-15-18(21)20-17(19(22)23)16-27-28(24,25)26/h17H,2-16H2,1H3,(H,20,21)(H,22,23)(H2,24,25,26)",423.481281,-7.20013248423,-0.4680358228600001,6.73209666137,2.048271695798436
000003866,NC(c1ccccc1)C(=O)O,C8H9NO2,"InChI=1S/C8H9NO2/c9-7(8(10)11)6-4-2-1-3-5-6/h1-5,7H,9H2,(H,10,11)",151.16256,-6.598760874625,-0.6095350251199996,5.989225849505001,3.7918900198345677
000003868,OC(=O)C1NCC(C1)C(=O)O,C6H9NO4,"InChI=1S/C6H9NO4/c8-5(9)3-1-4(6(10)11)7-2-3/h3-4,7H,1-2H2,(H,8,9)(H,10,11)",159.13996,-7.00421051187,-0.20952766488499996,6.794682846985,1.0180746649362218
000003869,CC(CCc1ccccc1)NCC(c1ccc(c(c1)C(=O)N)O)O,C19H24N2O3,"InChI=1S/C19H24N2O3/c1-13(7-8-14-5-3-2-4-6-14)21-12-18(23)15-9-10-17(22)16(11-15)19(20)24/h2-6,9-11,13,18,21-23H,7-8,12H2,1H3,(H2,20,24)",328.40546,-5.62731442834,-0.9115813991749997,4.715733029165,5.516539626488783
000003870,CC(=O)NC(C(=O)O)CSC(=O)C1(NC(=O)C(C1O)C)C(C(C)C)O,C15H24N2O7S,"InChI=1S/C15H24N2O7S/c1-6(2)10(19)15(11(20)7(3)12(21)17-15)14(24)25-5-9(13(22)23)16-8(4)18/h6-7,9-11,19-20H,5H2,1-4H3,(H,16,18)(H,17,21)(H,22,23)",376.42526,-6.740260076885,-1.1782529726649997,5.56200710422,6.020441237375381
000003871,OCC(C(C(C(CO)O)O)OC1OC(CO)C(C(C1O)O)O)O,C12H24O11,"InChI=1S/C12H24O11/c13-1-4(16)7(18)11(5(17)2-14)23-12-10(21)9(20)8(19)6(3-15)22-12/h4-21H,1-3H2",344.31236,-6.3674641017,0.9143025376800002,7.281766639380001,3.26702484170185
000003872,OCC1OC(C(C1OC1OC(CO)C(C(C1O)O)O)O)(O)CO,C12H22O11,"InChI=1S/C12H22O11/c13-1-4-6(16)7(17)8(18)11(21-4)22-9-5(2-14)23-12(20,3-15)10(9)19/h4-11,13-20H,1-3H2",342.29648,-6.8082885395099995,0.9415139227300005,7.74980246224,3.175011097892258
000003873,O=C(CS(=O)Cc1ccco1)NCC=CCOc1nccc(c1)CN1CCCCC1,C22H29N3O4S,"InChI=1S/C22H29N3O4S/c26-21(18-30(27)17-20-7-6-14-28-20)23-9-2-5-13-29-22-15-19(8-10-24-22)16-25-11-3-1-4-12-25/h2,5-8,10,14-15H,1,3-4,9,11-13,16-18H2,(H,23,26)",431.54836,-5.700785167975,-0.541506562495,5.15927860548,2.7658688430048524
000003877,Nc1ccn(c(=O)n1)C1CSC(O1)CO,C8H11N3O3S,"InChI=1S/C8H11N3O3S/c9-5-1-2-11(8(13)10-5)6-4-15-7(3-12)14-6/h1-2,6-7,12H,3-4H2,(H2,9,10,13)",229.25624,-6.005552680535001,-0.9006968451550001,5.10485583538,5.920517702947437
000003878,Nc1nnc(c(n1)N)c1cccc(c1Cl)Cl,C9H7Cl2N5,"InChI=1S/C9H7Cl2N5/c10-5-3-1-2-4(6(5)11)7-8(12)14-9(13)16-15-7/h1-3H,(H4,12,13,14,16)",256.09138,-5.755207938075,-1.13199361808,4.623214319995,3.2485375870856106
000003880,CCCCCCCCC=CCCCCCCCc1cc(O)ccc1O,C23H38O2,"InChI=1S/C23H38O2/c1-2-3-4-5-6-7-8-9-10-11-12-13-14-15-16-17-21-20-22(24)18-19-23(21)25/h9-10,18-20,24-25H,2-8,11-17H2,1H3",346.54662,-5.156557466975,0.07619187814000039,5.232749345115001,0.7052871811822472
000003881,N#CC(=C1SCC(S1)c1ccccc1Cl)n1cncc1,C14H10ClN3S2,"InChI=1S/C14H10ClN3S2/c15-11-4-2-1-3-10(11)13-8-19-14(20-13)12(7-16)18-6-5-17-9-18/h1-6,9,13H,8H2",319.8323,-6.06813886615,-1.6027505794449999,4.465388286705,6.239615730699447
000003882,CC(=CCCC(C1(C)CCC2(C1(C)CCC1=C2CCC2C1(C)CCC(C2(C)C)O)C)C)C,C31H52O,"InChI=1S/C31H52O/c1-21(2)11-10-12-22(3)29(7)19-20-30(8)24-13-14-25-27(4,5)26(32)16-17-28(25,6)23(24)15-18-31(29,30)9/h11,22,25-26,32H,10,12-20H2,1-9H3",440.74398,-5.815072985185,0.6666789337249996,6.48175191891,1.9322609219849165
000003883,O=S(c1nc2c([nH]1)cccc2)Cc1nccc(c1C)OCC(F)(F)F,C16H14F3N3O2S,"InChI=1S/C16H14F3N3O2S/c1-10-13(20-7-6-14(10)24-9-16(17,18)19)8-25(23)15-21-11-4-2-3-5-12(11)22-15/h2-7H,8-9H2,1H3,(H,21,22)",369.3614696,-6.17698440635,-1.2245123272500003,4.9524720791,3.615832165382403
000003884,CC(=CCC1=C(O)c2c(C(=O)C1=O)cccc2)C,C15H14O3,"InChI=1S/C15H14O3/c1-9(2)7-8-12-13(16)10-5-3-4-6-11(10)14(17)15(12)18/h3-7,16H,8H2,1-2H3",242.26986,-6.185147821865,-2.56875474872,3.616393073145,5.6676342154334565
000003885,O=C1C2=C(OC(CC2)(C)C)c2c(C1=O)cccc2,C15H14O3,"InChI=1S/C15H14O3/c1-15(2)8-7-11-13(17)12(16)9-5-3-4-6-10(9)14(11)18-15/h3-6H,7-8H2,1-2H3",242.26986,-6.06813886615,-2.500726286095,3.567412580055,6.280131969877941
000003890,OC(CCc1ccccc1)CCC1C(O)CC(C1CC=CCCCC(=O)OC(C)C)O,C26H40O5,"InChI=1S/C26H40O5/c1-19(2)31-26(30)13-9-4-3-8-12-22-23(25(29)18-24(22)28)17-16-21(27)15-14-20-10-6-5-7-11-20/h3,5-8,10-11,19,21-25,27-29H,4,9,12-18H2,1-2H3",432.5928,-6.32936816263,0.09796098618000038,6.42732914881,1.9473748933495059
000003891,O=C1SCC(N1)C1(O)CC2CC(O1)CCC(C)C=CC=CCCC(=CC(=O)O2)C,C22H31NO5S,"InChI=1S/C22H31NO5S/c1-15-7-5-3-4-6-8-16(2)11-20(24)27-18-12-17(10-9-15)28-22(26,13-18)19-14-29-21(25)23-19/h3-5,7,11,15,17-19,26H,6,8-10,12-14H2,1-2H3,(H,23,25)",421.55024,-6.34569499366,-1.249002573795,5.096692419865,6.245906307144704
000003892,O=C1SCC(N1)C1(O)CC2CC(O1)CCC(C)C=CCCC(=CC(=O)O2)C,C20H29NO5S,"InChI=1S/C20H29NO5S/c1-13-5-3-4-6-14(2)9-18(22)25-16-10-15(8-7-13)26-20(24,11-16)17-12-27-19(23)21-17/h3,5,9,13,15-17,24H,4,6-8,10-12H2,1-2H3,(H,21,23)",395.51296,-6.08446569718,-0.6721212107349999,5.412344486445,9.489963546328195
000003893,CCCCCCCCCCCC(=O)O,C12H24O2,"InChI=1S/C12H24O2/c1-2-3-4-5-6-7-8-9-10-11-12(13)14/h2-11H2,1H3,(H,13,14)",200.31776,-7.415102426125,0.23946018843999983,7.654562614565,4.223567617041664
000003894,Oc1ccc(c(c1)CN(c1ccc(c(c1)C(=O)O)O)Cc1ccccc1O)O,C21H19NO6,"InChI=1S/C21H19NO6/c23-16-6-8-19(25)14(9-16)12-22(11-13-3-1-2-4-18(13)24)15-5-7-20(26)17(10-15)21(27)28/h1-10,23-26H,11-12H2,(H,27,28)",381.37866,-5.37152740887,-1.3905017760550002,3.9810256328149993,4.392844670270621
000003895,Oc1ccccc1CN(c1ccc(c(c1)C(=O)O)O)Cc1ccccc1O,C21H19NO5,"InChI=1S/C21H19NO5/c23-18-7-3-1-5-14(18)12-22(13-15-6-2-4-8-19(15)24)16-9-10-20(25)17(11-16)21(26)27/h1-11,23-25H,12-13H2,(H,26,27)",365.37926,-4.982404602655,-1.020426939375,3.9619776632800003,6.4136364810276705
000003896,Oc1ccc(c(c1)CNc1ccc(c(c1)C(=O)O)O)O,C14H13NO5,"InChI=1S/C14H13NO5/c16-10-2-4-12(17)8(5-10)7-15-9-1-3-13(18)11(6-9)14(19)20/h1-6,15-18H,7H2,(H,19,20)",275.25672,-5.30077780774,-1.341521282965,3.9592565247750002,5.977163040326573
000003899,O=C(c1cnoc1C)Nc1ccc(cc1)C(F)(F)F,C12H9F3N2O2,"InChI=1S/C12H9F3N2O2/c1-7-10(6-16-19-7)11(18)17-9-4-2-8(3-5-9)12(13,14)15/h2-6H,1H3,(H,17,18)",270.2072696,-6.560664935555001,-1.673500180575,4.887164754980001,2.4884661969345694
000003900,O=C(C(c1ccccc1)N)NC1C(=O)N2C1SC(C2C(=O)OCc1oc(=O)oc1C)(C)C,C21H23N3O7S,"InChI=1S/C21H23N3O7S/c1-10-12(31-20(28)30-10)9-29-19(27)15-21(2,3)32-18-14(17(26)24(15)18)23-16(25)13(22)11-7-5-4-6-8-11/h4-8,13-15,18H,9,22H2,1-3H3,(H,23,25)",461.48822,-6.234128314955,-0.6285829946549999,5.6055453203,7.489938737735443
000003902,N#Cc1ccc(cc1)C(n1cncn1)c1ccc(cc1)C#N,C17H11N5,"InChI=1S/C17H11N5/c18-9-13-1-5-15(6-2-13)17(22-12-20-11-21-22)16-7-3-14(10-19)4-8-16/h1-8,11-12,17H",285.30274,-7.265439808350001,-2.0517384327699997,5.213701375580001,3.999169431816812
000003905,NC(C(C(=O)O)(Cc1[nH]cnc1)O)CC(C)C,C11H19N3O3,"InChI=1S/C11H19N3O3/c1-7(2)3-9(12)11(17,10(15)16)4-8-5-13-6-14-8/h5-7,9,17H,3-4,12H2,1-2H3,(H,13,14)(H,15,16)",241.28686,-5.978341295485,-0.35646914415499964,5.621872151330001,4.46482280422471
000003906,CCCCCCCCC(C=CC=CC=CC(CCCC(=O)O)O)O,C20H34O4,"InChI=1S/C20H34O4/c1-2-3-4-5-6-9-13-18(21)14-10-7-8-11-15-19(22)16-12-17-20(23)24/h7-8,10-11,14-15,18-19,21-22H,2-6,9,12-13,16-17H2,1H3,(H,23,24)",338.48156,-5.89398600183,-1.4775782082150002,4.416407793615,7.149048924007584
000003908,CCCCCC=CCC=CC=CC=CC(C(CCCC(=O)O)O)SCC(C(=O)NCC(=O)O)N,C25H40N2O6S,"InChI=1S/C25H40N2O6S/c1-2-3-4-5-6-7-8-9-10-11-12-13-16-22(21(28)15-14-17-23(29)30)34-19-20(26)25(33)27-18-24(31)32/h6-7,9-13,16,20-22,28H,2-5,8,14-15,17-19,26H2,1H3,(H,27,33)(H,29,30)(H,31,32)",496.6599,-5.18648999053,-0.90886026067,4.27762972986,3.7286243104559356
000003909,CCCCCC=CCC=CC=CC=CC(C(CCCC(=O)O)O)SCC(C(=O)O)N,C23H37NO5S,"InChI=1S/C23H37NO5S/c1-2-3-4-5-6-7-8-9-10-11-12-13-16-21(30-18-19(24)23(28)29)20(25)15-14-17-22(26)27/h6-7,9-13,16,19-21,25H,2-5,8,14-15,17-18,24H2,1H3,(H,26,27)(H,28,29)",439.60858,-5.39329651691,-1.08301312499,4.31028339192,5.730116903499439
000003910,O=CC(NC(=O)C(NC(=O)C(NC(=O)C)CC(C)C)CC(C)C)CCCN=C(N)N,C20H38N6O4,"InChI=1S/C20H38N6O4/c1-12(2)9-16(24-14(5)28)19(30)26-17(10-13(3)4)18(29)25-15(11-27)7-6-8-23-20(21)22/h11-13,15-17H,6-10H2,1-5H3,(H,24,28)(H,25,29)(H,26,30)(H4,21,22,23)",426.55352,-5.417786763455,-1.053080601435,4.36470616202,3.8552190581300305
000003912,C=CCN1CCC23C(C1Cc1c3cc(cc1)O)CCCC2,C19H25NO,"InChI=1S/C19H25NO/c1-2-10-20-11-9-19-8-4-3-5-16(19)18(20)12-14-6-7-15(21)13-17(14)19/h2,6-7,13,16,18,21H,1,3-5,8-12H2",283.4079,-5.48037294907,0.04353821607999997,5.52391116515,1.038094749582137
000003913,C1CN2C(=NC(C2)c2ccccc2)S1,C11H12N2S,"InChI=1S/C11H12N2S/c1-2-4-9(5-3-1)10-8-13-6-7-14-11(13)12-10/h1-5,10H,6-8H2",204.29138,-6.03004292708,0.027211385050000203,6.05725431213,3.952367196224688
000003914,OC(COc1cccc2c1CCCC2=O)CNC(C)(C)C,C17H25NO3,"InChI=1S/C17H25NO3/c1-17(2,3)18-10-12(19)11-21-16-9-5-6-13-14(16)7-4-8-15(13)20/h5-6,9,12,18-19H,4,7-8,10-11H2,1-3H3",291.3853,-5.956572187445,-1.3687326680150003,4.58783951943,3.39004799618619
000003915,N#CC1(CCC(CC1)N1CCC(C(C1)C)(C(=O)O)c1ccccc1)c1ccc(cc1)F,C26H29FN2O2,"InChI=1S/C26H29FN2O2/c1-19-17-29(16-15-26(19,24(30)31)21-5-3-2-4-6-21)23-11-13-25(18-28,14-12-23)20-7-9-22(27)10-8-20/h2-10,19,23H,11-17H2,1H3,(H,30,31)",420.5190632,-6.0790234201699995,-0.764639919905,5.3143835002649995,3.0756808809866802
000003916,COc1ccc2c(c1)N(CC(CN(C)C)C)c1c(S2)cccc1,C19H24N2OS,"InChI=1S/C19H24N2OS/c1-14(12-20(2)3)13-21-16-7-5-6-8-18(16)23-19-10-9-15(22-4)11-17(19)21/h5-11,14H,12-13H2,1-4H3",328.47166,-4.579676103915,-0.31293092807499967,4.266745175840001,1.8273092404147142
000003917,CC(C(c1ccc(c(c1)O)O)O)N,C9H13NO3,"InChI=1S/C9H13NO3/c1-5(10)9(13)6-2-3-7(11)8(12)4-6/h2-5,9,11-13H,10H2,1H3",183.20442,-5.630035566845,-0.07347073963499984,5.55656482721,2.4925786917515764
000003918,Oc1ccc2c(c1)C13CCCCC3C(C2)N(CC1)C,C17H23NO,"InChI=1S/C17H23NO/c1-18-9-8-17-7-3-2-4-14(17)16(18)10-12-5-6-13(19)11-15(12)17/h5-6,11,14,16,19H,2-4,7-10H2,1H3",257.37062,-5.444998148505,0.06802846262499962,5.51302661113,0.985996086459779
000003922,Cc1cc2c(cc1C1(CC1)c1ccc(cn1)C(=O)O)C(C)(C)CCC2(C)C,C24H29NO2,"InChI=1S/C24H29NO2/c1-15-12-18-19(23(4,5)9-8-22(18,2)3)13-17(15)24(10-11-24)20-7-6-16(14-25-20)21(26)27/h6-7,12-14H,8-11H2,1-5H3,(H,26,27)",363.49256,-6.130725051765,-1.4530879616699997,4.677637090095001,5.401314325516429
000003923,C=CC(c1cc(C=CC(=O)c2ccc(cc2)O)c(cc1O)OC)(C)C,C21H22O4,"InChI=1S/C21H22O4/c1-5-21(2,3)17-12-15(20(25-4)13-19(17)24)8-11-18(23)14-6-9-16(22)10-7-14/h5-13,22,24H,1H2,2-4H3",338.39698,-5.36064285485,-1.5129530087799998,3.84768984607,3.580768251365899
000003926,O=C(Nc1c(C)cccc1C)CN1CCN(CC1)CCCC(c1ccc(cc1)F)c1ccc(cc1)F,C30H35F2N3O,"InChI=1S/C30H35F2N3O/c1-22-5-3-6-23(2)30(22)33-29(36)21-35-19-17-34(18-20-35)16-4-7-28(24-8-12-26(31)13-9-24)25-10-14-27(32)15-11-25/h3,5-6,8-15,28H,4,7,16-21H2,1-2H3,(H,33,36)",491.6152064,-5.455882702525001,-0.41633419126500026,5.0395485112600005,3.338858719123048
000003927,CCCCC(CC(C=CC1C(O)CC(=O)C1CCCCC=CC(=O)O)O)C,C22H36O5,"InChI=1S/C22H36O5/c1-3-4-9-16(2)14-17(23)12-13-19-18(20(24)15-21(19)25)10-7-5-6-8-11-22(26)27/h8,11-13,16-19,21,23,25H,3-7,9-10,14-15H2,1-2H3,(H,26,27)",380.51824,-6.5688283510700005,-1.2734928203400004,5.29533553073,5.91181846293854
000003928,CCCC1CN(C(C1)C(=O)NC(C1OC(SC)C(C(C1O)O)O)C(O)C)C,C18H34N2O6S,"InChI=1S/C18H34N2O6S/c1-5-6-10-7-11(20(3)8-10)17(25)19-12(9(2)21)16-14(23)13(22)15(24)18(26-16)27-4/h9-16,18,21-24H,5-8H2,1-4H3,(H,19,25)",406.53736,-5.730717691530001,-0.07619187814000039,5.65452581339,1.6775157398731018
000003929,CC(=O)NCC1OC(=O)N(C1)c1ccc(c(c1)F)N1CCOCC1,C16H20FN3O4,"InChI=1S/C16H20FN3O4/c1-11(21)18-9-13-10-20(16(22)24-13)12-2-3-15(14(17)8-12)19-4-6-23-7-5-19/h2-3,8,13H,4-7,9-10H2,1H3,(H,18,21)",337.3461032,-5.570170519735,-0.4353821607999997,5.134788358935,3.2545999106974732
000003930,CCCCCC=CCC=CCCCCCCCC(=O)N,C18H33NO,"InChI=1S/C18H33NO/c1-2-3-4-5-6-7-8-9-10-11-12-13-14-15-16-17-18(19)20/h6-7,9-10H,2-5,8,11-17H2,1H3,(H2,19,20)",279.46072,-6.14433074429,0.6013716096049997,6.745702353895,3.367057690705492
000003931,CCCCCC=CCC=CCCCCCCCC(=O)O,C18H32O2,"InChI=1S/C18H32O2/c1-2-3-4-5-6-7-8-9-10-11-12-13-14-15-16-17-18(19)20/h6-7,9-10H,2-5,8,11-17H2,1H3,(H,19,20)",280.44548,-6.19875351439,0.23129677292499995,6.430050287315,4.256756615350001
000003932,O=C1N(c2ccccc2)c2c(C1(Cc1ccncc1)Cc1ccncc1)cccc2,C26H21N3O,"InChI=1S/C26H21N3O/c30-25-26(18-20-10-14-27-15-11-20,19-21-12-16-28-17-13-21)23-8-4-5-9-24(23)29(25)22-6-2-1-3-7-22/h1-17H,18-19H2",391.46444,-5.888543724820001,-0.9333505072149997,4.955193217605001,4.612496039967297
000003934,CCCCCC(C=CC=CC=CC=CC(C(CCCC(=O)O)O)O)O,C20H32O5,"InChI=1S/C20H32O5/c1-2-3-8-12-17(21)13-9-6-4-5-7-10-14-18(22)19(23)15-11-16-20(24)25/h4-7,9-10,13-14,17-19,21-23H,2-3,8,11-12,15-16H2,1H3,(H,24,25)",352.46508,-5.32254691578,-1.483020485225,3.8395264305550003,2.8765312213136154
000003935,CCCCCC(C(C=CC=CC=CC=CC(CCCC(=O)O)O)O)O,C20H32O5,"InChI=1S/C20H32O5/c1-2-3-8-14-18(22)19(23)15-10-7-5-4-6-9-12-17(21)13-11-16-20(24)25/h4-7,9-10,12,15,17-19,21-23H,2-3,8,11,13-14,16H2,1H3,(H,24,25)",352.46508,-5.69262175246,-1.8503741834000005,3.8422475690599995,7.041427935804356
000003936,COc1cccc(n1)N(C(=S)Oc1ccc2c(c1)CCCC2)C,C18H20N2O2S,"InChI=1S/C18H20N2O2S/c1-20(16-8-5-9-17(19-16)21-2)18(23)22-15-11-10-13-6-3-4-7-14(13)12-15/h5,8-12H,3-4,6-7H2,1-2H3",328.4286,-5.553843688705,-1.009542385355,4.54430130335,2.223739016187826
000003937,NCCCCC(C(=O)N1CCCC1C(=O)O)NC(C(=O)O)CCc1ccccc1,C21H31N3O5,"InChI=1S/C21H31N3O5/c22-13-5-4-9-16(19(25)24-14-6-10-18(24)21(28)29)23-17(20(26)27)12-11-15-7-2-1-3-8-15/h1-3,7-8,16-18,23H,4-6,9-14,22H2,(H,26,27)(H,28,29)",405.48794,-6.438213702830001,-0.4898049309000001,5.9484087719300005,7.444358689318375
000003938,CCN(C(=O)NC1CN(C)C2C(=C1)c1cccc3c1c(C2)c[nH]3)CC,C20H26N4O,"InChI=1S/C20H26N4O/c1-4-24(5-2)20(25)22-14-10-16-15-7-6-8-17-19(15)13(11-21-17)9-18(16)23(3)12-14/h6-8,10-11,14,18,21H,4-5,9,12H2,1-3H3,(H,22,25)",338.44664,-5.102134696875,-0.7347073963500002,4.367427300525,4.313858700956373
000003941,C1CN2CCC1C(=C(c1ccccc1)c1ccccc1)C2,C20H21N,"InChI=1S/C20H21N/c1-3-7-17(8-4-1)20(18-9-5-2-6-10-18)19-15-21-13-11-16(19)12-14-21/h1-10,16H,11-15H2",275.38744,-5.62187215133,-0.19864311086500042,5.423229040464999,0.9333364442204108
000003945,OC(c1ccccc1)CC1CCCC(N1C)CC(=O)c1ccccc1,C22H27NO2,"InChI=1S/C22H27NO2/c1-23-19(15-21(24)17-9-4-2-5-10-17)13-8-14-20(23)16-22(25)18-11-6-3-7-12-18/h2-7,9-12,19-21,24H,8,13-16H2,1H3",337.45528,-5.510305472625,-1.3741749450249996,4.136130527600001,2.782534546376379
000003946,Clc1ccc(c(c1)Nc1ccccc1C(=O)O)C(=O)O,C14H10ClNO4,"InChI=1S/C14H10ClNO4/c15-8-5-6-10(14(19)20)12(7-8)16-11-4-2-1-3-9(11)13(17)18/h1-7,16H,(H,17,18)(H,19,20)",291.6865,-6.04636975811,-1.6898270116049998,4.356542746505,1.8545025004135203
000003947,CN(CC(=O)c1ccc(cc1)Cl)CCCN1c2ccccc2CCc2c1cccc2,C26H27ClN2O,"InChI=1S/C26H27ClN2O/c1-28(19-26(30)22-13-15-23(27)16-14-22)17-6-18-29-24-9-4-2-7-20(24)11-12-21-8-3-5-10-25(21)29/h2-5,7-10,13-16H,6,11-12,17-19H2,1H3",418.95838,-5.25179731465,-1.7007115656250003,3.551085749025,0.9361203799309146
000003948,CCn1cc(C(=O)O)c(=O)c2c1c(F)c(N1CCNC(C1)C)c(c2)F,C17H19F2N3O3,"InChI=1S/C17H19F2N3O3/c1-3-21-8-11(17(24)25)16(23)10-6-12(18)15(13(19)14(10)21)22-5-4-20-9(2)7-22/h6,8-9,20H,3-5,7H2,1-2H3,(H,24,25)",351.3478664,-6.190590098875,-1.717038396655,4.47355170222,9.675928908847203
000003949,COc1c(ccc(c1OC)OC)CN1CCN(CC1)C(c1ccc(cc1)F)c1ccc(cc1)F,C27H30F2N2O3,"InChI=1S/C27H30F2N2O3/c1-32-24-13-8-21(26(33-2)27(24)34-3)18-30-14-16-31(17-15-30)25(19-4-9-22(28)10-5-19)20-6-11-23(29)12-7-20/h4-13,25H,14-18H2,1-3H3",468.5355064,-5.08852900435,-0.4816415153850002,4.6068874889649996,3.0021050299243366
000003950,ClCCN(C(=O)NC1CCCCC1)N=O,C9H16ClN3O2,"InChI=1S/C9H16ClN3O2/c10-6-7-13(12-15)9(14)11-8-4-2-1-3-5-8/h8H,1-7H2,(H,11,14)",233.69524,-6.48719419592,-1.537443255325,4.949750940595,1.5254480315766252
000003951,CC(=CCc1c2OC(CC(=O)c2c(c(c1O)CC=C(C)C)O)c1ccc(cc1)O)C,C25H28O5,"InChI=1S/C25H28O5/c1-14(2)5-11-18-23(28)19(12-6-15(3)4)25-22(24(18)29)20(27)13-21(30-25)16-7-9-17(26)10-8-16/h5-10,21,26,28-29H,11-13H2,1-4H3",408.48682,-5.442277010000001,-0.6966114572800004,4.74566555272,3.80381049443765
000003953,OC(=O)c1nn(c2c1cccc2)Cc1ccc(c(c1)Cl)Cl,C15H10Cl2N2O2,"InChI=1S/C15H10Cl2N2O2/c16-11-6-5-9(7-12(11)17)8-19-13-4-2-1-3-10(13)14(18-19)15(20)21/h1-7H,8H2,(H,20,21)",321.1581,-6.430050287315001,-1.7007115656250003,4.7293387216900005,6.609567881656183
000003955,Clc1ccc(cc1)C1(O)CCN(CC1)CCC(C(=O)N(C)C)(c1ccccc1)c1ccccc1,C29H33ClN2O2,"InChI=1S/C29H33ClN2O2/c1-31(2)27(33)29(24-9-5-3-6-10-24,25-11-7-4-8-12-25)19-22-32-20-17-28(34,18-21-32)23-13-15-26(30)16-14-23/h3-16,34H,17-22H2,1-2H3",477.03752,-5.58921848927,-0.3292577591050003,5.259960730165,5.739152197639038
000003956,NC(c1ccccc1)C(=O)NC1C2CCC(=C(N2C1=O)C(=O)O)Cl,C16H16ClN3O4,"InChI=1S/C16H16ClN3O4/c17-9-6-7-10-12(15(22)20(10)13(9)16(23)24)19-14(21)11(18)8-4-2-1-3-5-8/h1-5,10-12H,6-7,18H2,(H,19,21)(H,23,24)",349.76894,-6.49807874994,-1.3660115295099997,5.132067220430001,6.787723793044764
000003957,CCOC(=O)N1CCC(=C2c3ccc(cc3CCc3c2nccc3)Cl)CC1,C22H23ClN2O2,"InChI=1S/C22H23ClN2O2/c1-2-27-22(26)25-12-9-15(10-13-25)20-19-8-7-18(23)14-17(19)6-5-16-4-3-11-24-21(16)20/h3-4,7-8,11,14H,2,5-6,9-10,12-13H2,1H3",382.88322,-6.059975450635,-0.873485460105,5.18648999053,4.3541790751329925
000003958,Clc1ccc2c(c1)C(=NC(C(=O)N2)O)c1ccccc1Cl,C15H10Cl2N2O2,"InChI=1S/C15H10Cl2N2O2/c16-8-5-6-12-10(7-8)13(19-15(21)14(20)18-12)9-3-1-2-4-11(9)17/h1-7,15,21H,(H,18,20)",321.1581,-6.33481043964,-1.760576612735,4.574233826905,3.4752771816794703
000003960,CCCCCN(C(=O)C(NC(=O)c1ccc(c(c1)Cl)Cl)CCC(=O)O)CCCCC,C22H32Cl2N2O4,"InChI=1S/C22H32Cl2N2O4/c1-3-5-7-13-26(14-8-6-4-2)22(30)19(11-12-20(27)28)25-21(29)16-9-10-17(23)18(24)15-16/h9-10,15,19H,3-8,11-14H2,1-2H3,(H,25,29)(H,27,28)",459.40648,-6.3021567775800005,-1.297983066885,5.004173710695,2.6911407191280428
000003961,CCCCc1nc(c(n1Cc1ccc(cc1)c1ccccc1c1n[nH]nn1)CO)Cl,C22H23ClN6O,"InChI=1S/C22H23ClN6O/c1-2-3-8-20-24-21(23)19(14-30)29(20)13-15-9-11-16(12-10-15)17-6-4-5-7-18(17)22-25-27-28-26-22/h4-7,9-12,30H,2-3,8,13-14H2,1H3,(H,25,26,27,28)",422.91062,-5.80690956967,-1.2081854962199996,4.598724073450001,3.1709808520725886
000003962,CCC(C(=O)OC1CC(C)C=C2C1C(CCC1CC(O)CC(=O)O1)C(C=C2)C)C,C24H36O5,"InChI=1S/C24H36O5/c1-5-15(3)24(27)29-21-11-14(2)10-17-7-6-16(4)20(23(17)21)9-8-19-12-18(25)13-22(26)28-19/h6-7,10,14-16,18-21,23,25H,5,8-9,11-13H2,1-4H3",404.53964,-4.92526069405,-1.12110906406,3.8041516299900002,2.857780010642877
000003963,Cc1ccc(c(c1)NC(c1c(Cl)cccc1Cl)C(=O)N)C(=O)C,C17H16Cl2N2O2,"InChI=1S/C17H16Cl2N2O2/c1-9-6-7-11(10(2)22)14(8-9)21-16(17(20)23)15-12(18)4-3-5-13(15)19/h3-8,16,21H,1-2H3,(H2,20,23)",351.22714,-5.499420918605,-1.3333578674500002,4.166063051155,3.5183199804561553
000003964,CN1CCN(CC1)C1=Nc2ccccc2Oc2c1cc(Cl)cc2,C18H18ClN3O,"InChI=1S/C18H18ClN3O/c1-21-8-10-22(11-9-21)18-14-12-13(19)6-7-16(14)23-17-5-3-2-4-15(17)20-18/h2-7,12H,8-11H2,1H3",327.80802,-5.287172115215,-1.5347221168200003,3.752449998395,0.5199413235279535
000003965,OC(=O)C(c1ccc(cc1)CC1CCCC1=O)C,C15H18O3,"InChI=1S/C15H18O3/c1-10(15(17)18)12-7-5-11(6-8-12)9-13-3-2-4-14(13)16/h5-8,10,13H,2-4,9H2,1H3,(H,17,18)",246.30162,-6.528011273495,-0.8571586290750002,5.67085264442,4.784089016408558