mol_id,SMILES,formula,inchi,mass,HOMO(eV),LUMO(eV),GAP(eV),dipole_moment
000003050,CCOP(=O)(Cc1ccc(cc1)C)OCC,C12H19O3P,"InChI=1S/C12H19O3P/c1-4-14-16(13,15-5-2)10-12-8-6-11(3)7-9-12/h6-9H,4-5,10H2,1-3H3",242.251221,-6.293993362065001,-0.23946018843999983,6.054533173625001,4.156628980341883
000003051,CCOC(=O)OC(=O)OCC,C6H10O5,"InChI=1S/C6H10O5/c1-3-9-5(7)11-6(8)10-4-2/h3-4H2,1-2H3",162.1406,-8.095387052375,0.06258618561500029,8.15797323799,1.538911167793645
000003052,CCN(C(=O)N1CCN(CC1)C)CC,C10H21N3O,"InChI=1S/C10H21N3O/c1-4-12(5-2)10(14)13-8-6-11(3)7-9-13/h4-9H2,1-3H3",199.29324,-5.5021420571099995,0.8626009060849995,6.364742963194999,2.724208432118218
000003053,OC(=O)CN(CCN(CC(=O)O)CC(=O)O)CCN(CC(=O)O)CC(=O)O,C14H23N3O10,"InChI=1S/C14H23N3O10/c18-10(19)5-15(1-3-16(6-11(20)21)7-12(22)23)2-4-17(8-13(24)25)9-14(26)27/h1-9H2,(H,18,19)(H,20,21)(H,22,23)(H,24,25)(H,26,27)",393.34652,-6.78651943147,-0.8952545681449999,5.891264863325,7.5915976168959975
000003054,CCC(=C(c1ccc(cc1)O)CC)c1ccc(cc1)O,C18H20O2,"InChI=1S/C18H20O2/c1-3-17(13-5-9-15(19)10-6-13)18(4-2)14-7-11-16(20)12-8-14/h5-12,19-20H,3-4H2,1-2H3",268.3502,-5.613708735815001,-0.08435529365500027,5.529353442160001,2.508372025327583
000003055,OC(c1ccccc1)(c1ccccc1)CCCN1CCCCC1,C21H27NO,"InChI=1S/C21H27NO/c23-21(19-11-4-1-5-12-19,20-13-6-2-7-14-20)15-10-18-22-16-8-3-9-17-22/h1-2,4-7,11-14,23H,3,8-10,15-18H2",309.44518,-5.553843688705,-0.144220340765,5.40962334794,2.322077938207286
000003056,CC(=O)OC1(C(C)CC2C1(C)CC(O)C1(C2CC(C2=CC(=O)C=CC12C)F)F)C(=O)COC(=O)C,C26H32F2O7,"InChI=1S/C26H32F2O7/c1-13-8-17-18-10-20(27)19-9-16(31)6-7-23(19,4)25(18,28)21(32)11-24(17,5)26(13,35-15(3)30)22(33)12-34-14(2)29/h6-7,9,13,17-18,20-21,32H,8,10-12H2,1-5H3",494.5248864,-6.2586185615000005,-1.8204416598450006,4.438176901655,10.691044696952773
000003057,O=C1C=CC2(C(=C1)C(F)CC1C2(F)C(O)CC2(C1CC(C2C(=O)COC(=O)C(C)(C)C)C)C)C,C27H36F2O5,"InChI=1S/C27H36F2O5/c1-14-9-16-17-11-19(28)18-10-15(30)7-8-26(18,6)27(17,29)21(32)12-25(16,5)22(14)20(31)13-34-23(33)24(2,3)4/h7-8,10,14,16-17,19,21-22,32H,9,11-13H2,1-6H3",478.5685464,-6.266781977015,-1.4013863300749998,4.865395646940001,7.5895634513158265
000003058,CCCCC(=O)OCC(=O)C1C(C)CC2C1(C)CC(O)C1(C2CC(C2=CC(=O)C=CC12C)F)F,C27H36F2O5,"InChI=1S/C27H36F2O5/c1-5-6-7-23(33)34-14-21(31)24-15(2)10-17-18-12-20(28)19-11-16(30)8-9-26(19,4)27(18,29)22(32)13-25(17,24)3/h8-9,11,15,17-18,20,22,24,32H,5-7,10,12-14H2,1-4H3",478.5685464,-6.522568996485,-1.7306440891800001,4.791924907305,4.776916860653742
000003059,Fc1ccc(c(c1)F)c1ccc(c(c1)C(=O)O)O,C13H8F2O3,"InChI=1S/C13H8F2O3/c14-8-2-3-9(11(15)6-8)7-1-4-12(16)10(5-7)13(17)18/h1-6,16H,(H,17,18)",250.1976264,-6.41100231778,-1.4394822691450004,4.971520048635,6.2148914135218005
000003063,COc1ccc2c3c1OC1C43CCN(C(C2)C4CCC1O)C,C18H23NO3,"InChI=1S/C18H23NO3/c1-19-8-7-18-11-4-5-13(20)17(18)22-16-14(21-2)6-3-10(15(16)18)9-12(11)19/h3,6,11-13,17,20H,4-5,7-9H2,1-2H3",301.38012,-5.243633899135,0.3292577591050003,5.5728916582400005,1.7817437119908688
000003064,OC1CCCC(C)CC=CC2C3(OC(=O)CC1)C(=O)NC(C3C(C(=C)C2O)C)Cc1ccccc1,C29H39NO5,"InChI=1S/C29H39NO5/c1-18-9-7-13-22(31)15-16-25(32)35-29-23(14-8-10-18)27(33)20(3)19(2)26(29)24(30-28(29)34)17-21-11-5-4-6-12-21/h4-6,8,11-12,14,18-19,22-24,26-27,31,33H,3,7,9-10,13,15-17H2,1-2H3,(H,30,34)",481.62366,-6.217801483925,-0.40272849874000016,5.815072985185,4.429156392505801
000003070,OC1CCC(C(=CC=C2CCCC3(C2CCC3C(C=CC(C(C)C)C)C)C)C1)C,C28H46O,"InChI=1S/C28H46O/c1-19(2)20(3)9-10-22(5)26-15-16-27-23(8-7-17-28(26,27)6)12-13-24-18-25(29)14-11-21(24)4/h9-10,12-13,19-22,25-27,29H,7-8,11,14-18H2,1-6H3",398.66424,-6.049090896615,0.21224880338999963,6.261339700004999,1.9470100176776186
000003071,c1ccc2c(c1)c(c[nH]2)Cc1c[nH]c2c1cccc2,C17H14N2,"InChI=1S/C17H14N2/c1-3-7-16-14(5-1)12(10-18-16)9-13-11-19-17-8-4-2-6-15(13)17/h1-8,10-11,18-19H,9H2",246.30646,-5.14839405146,-0.16054717179499978,4.987846879665001,2.839522191846368
000003072,CC(OP(=O)OC(C)C)C,C6H15O3P,"InChI=1S/C6H15O3P/c1-5(2)8-10(7)9-6(3)4/h5-6,10H,1-4H3",166.155261,-7.553880489880001,1.5891448869199998,9.1430253768,3.7029519451871096
000003073,CC(OP(=O)(OC(C)C)C)C,C7H17O3P,"InChI=1S/C7H17O3P/c1-6(2)9-11(5,8)10-7(3)4/h6-7H,1-5H3",180.181841,-7.366121933035,1.8231627983499994,9.189284731385,1.6873215284841236
000003076,COc1ccc(cc1)C1Sc2ccccc2N(C(=O)C1OC(=O)C)CCN(C)C,C22H26N2O4S,"InChI=1S/C22H26N2O4S/c1-15(25)28-20-21(16-9-11-17(27-4)12-10-16)29-19-8-6-5-7-18(19)24(22(20)26)14-13-23(2)3/h5-12,20-21H,13-14H2,1-4H3",414.51784,-5.564728242725,-0.5714390860499998,4.993289156675,2.9649083764762443
000003078,COc1ccc2c(c1CN(C)C)oc(c(c2=O)C)c1ccccc1,C20H21NO3,"InChI=1S/C20H21NO3/c1-13-18(22)15-10-11-17(23-4)16(12-21(2)3)20(15)24-19(13)14-8-6-5-7-9-14/h5-11H,12H2,1-4H3",323.38564,-5.81779412369,-1.3796172220349998,4.438176901655,3.9701256519397465
000003079,Cc1ccc2c(c1)C13CCCCC3C(C2)N(CC1)C,C18H25N,"InChI=1S/C18H25N/c1-13-6-7-14-12-17-15-5-3-4-8-18(15,16(14)11-13)9-10-19(17)2/h6-7,11,15,17H,3-5,8-10,12H2,1-2H3",255.3978,-5.52935344216,0.005442277010000218,5.53479571917,0.5656903581934202
000003080,OCC(CS)S,C3H8OS2,"InChI=1S/C3H8OS2/c4-1-3(6)2-5/h3-6H,1-2H2",124.22502,-6.4246080103050005,0.6830057647550003,7.107613775060001,2.149379739199428
000003081,O=C1NC(=O)C(O1)(C)C,C5H7NO3,"InChI=1S/C5H7NO3/c1-5(2)3(7)6-4(8)9-5/h1-2H3,(H,6,7,8)",129.11398,-7.540274797355001,-0.6176984406350003,6.9225763567200005,2.136412580208233
000003082,CNC(=O)CSP(=S)(OC)OC,C5H12NO3PS2,"InChI=1S/C5H12NO3PS2/c1-6-5(7)4-12-10(11,8-2)9-3/h4H2,1-3H3,(H,6,7)",229.257441,-6.631414536685,-0.6095350251199996,6.021879511565,3.3254281360554163
000003084,COc1cc(C(N(CC(=O)O)CC(=O)O)CN(CC(=O)O)CC(=O)O)c(cc1OC)[N+](=O)[O-],C18H23N3O12,"InChI=1S/C18H23N3O12/c1-32-13-3-10(11(21(30)31)4-14(13)33-2)12(20(8-17(26)27)9-18(28)29)5-19(6-15(22)23)7-16(24)25/h3-4,12H,5-9H2,1-2H3,(H,22,23)(H,24,25)(H,26,27)(H,28,29)",473.38812,-6.5688283510700005,-2.64494662686,3.9238817242100006,15.421454849851003
000003086,COC(=O)OC(=O)OC,C4H6O5,InChI=1S/C4H6O5/c1-7-3(5)9-4(6)8-2/h1-2H3,134.08744,-8.02191631274,-0.11156667870499959,7.910349634035001,1.6902981301737867
000003088,COc1cc2[nH]c3c(c2cc1OC)CCN1C3CC2C(C1)C(C)OC=C2C(=O)OCCN(C)C,C26H35N3O5,"InChI=1S/C26H35N3O5/c1-15-19-13-29-7-6-16-18-11-23(31-4)24(32-5)12-21(18)27-25(16)22(29)10-17(19)20(14-34-15)26(30)33-9-8-28(2)3/h11-12,14-15,17,19,22,27H,6-10,13H2,1-5H3",469.5732,-4.770155799265001,-0.541506562495,4.228649236770001,3.3507438979939965
000003089,CC(N(C)C)CN1c2cc(ccc2Sc2c1cccc2)S(=O)(=O)N(C)C,C19H25N3O2S2,"InChI=1S/C19H25N3O2S2/c1-14(20(2)3)13-22-16-8-6-7-9-18(16)25-19-11-10-15(12-17(19)22)26(23,24)21(4)5/h6-12,14H,13H2,1-5H3",391.5507,-5.044990788270001,-1.1700895571499998,3.874901231120001,4.702091698849459
000003090,[O-][N+](=O)c1cnc(n1C)C,C5H7N3O2,"InChI=1S/C5H7N3O2/c1-4-6-3-5(7(4)2)8(9)10/h3H,1-2H3",141.12798,-6.79196170848,-2.24221812812,4.5497435803599995,4.827977257010227
000003091,CCCCN(C(=O)N1CCOCC1)CCN(C(=O)N1CCOCC1)CCCC,C20H38N4O4,"InChI=1S/C20H38N4O4/c1-3-5-7-21(19(25)23-11-15-27-16-12-23)9-10-22(8-6-4-2)20(26)24-13-17-28-18-14-24/h3-18H2,1-2H3",398.54012,-5.874938032295001,0.6040927481100002,6.479030780405001,0.8206435352380472
000003092,[O-][N+](=O)c1cc(C(=O)N)c(c(c1)[N+](=O)[O-])C,C8H7N3O5,"InChI=1S/C8H7N3O5/c1-4-6(8(9)12)2-5(10(13)14)3-7(4)11(15)16/h2-3H,1H3,(H2,9,12)",225.15828,-7.556601628385001,-3.0395117100849998,4.517089918300001,4.705050049559622
000003093,CCCCCCCC(=O)OCCOC(=O)CCCCCCC,C18H34O4,"InChI=1S/C18H34O4/c1-3-5-7-9-11-13-17(19)21-15-16-22-18(20)14-12-10-8-6-4-2/h3-16H2,1-2H3",314.46016,-7.3416316864899995,0.06802846262499962,7.409660149114999,2.4256966798610664
000003094,CCCCCCCCNCCCCCCCC,C16H35N,"InChI=1S/C16H35N/c1-3-5-7-9-11-13-15-17-16-14-12-10-8-6-4-2/h17H,3-16H2,1-2H3",241.4558,-5.80146729266,2.3837173303799997,8.18518462304,0.894009942198072
000003095,COc1cccc2c1c(OC)cc(c2c1ccc2c(c1O)C(C)NC(C2)C)C,C24H27NO3,"InChI=1S/C24H27NO3/c1-13-11-20(28-5)23-17(7-6-8-19(23)27-4)21(13)18-10-9-16-12-14(2)25-15(3)22(16)24(18)26/h6-11,14-15,25-26H,12H2,1-5H3",377.47608,-4.71845416767,-0.3047675125599998,4.41368665511,0.31622138499475333
000003097,COc1cccc(c1O)C(=O)c1ccccc1O,C14H12O4,"InChI=1S/C14H12O4/c1-18-12-8-4-6-10(14(12)17)13(16)9-5-2-3-7-11(9)15/h2-8,15,17H,1H3",244.24268,-5.42595017897,-1.4231554381149998,4.002794740855,4.250947625243576
000003100,CN(CCOC(c1ccccc1)c1ccccc1)C,C17H21NO,"InChI=1S/C17H21NO/c1-18(2)13-14-19-17(15-9-5-3-6-10-15)16-11-7-4-8-12-16/h3-12,17H,13-14H2,1-2H3",255.35474,-5.907591694355,-0.22313335741000007,5.684458336945,1.1357062695195443
000003102,O=C(c1ccccc1)c1ccccc1,C13H10O,InChI=1S/C13H10O/c14-13(11-7-3-1-4-8-11)12-9-5-2-6-10-12/h1-10H,182.2179,-6.5688283510700005,-1.5483278093449995,5.020500541725001,3.0758240857666097
000003103,CN1CCC(CC1)OC(c1ccccc1)c1ccccc1,C19H23NO,"InChI=1S/C19H23NO/c1-20-14-12-18(13-15-20)21-19(16-8-4-2-5-9-16)17-10-6-3-7-11-17/h2-11,18-19H,12-15H2,1H3",281.39202,-5.464046118040001,-0.18231627983499976,5.281729838205001,1.9396278426765274
000003105,CNCC(c1ccc(c(c1)OC(=O)C(C)(C)C)OC(=O)C(C)(C)C)O,C19H29NO5,"InChI=1S/C19H29NO5/c1-18(2,3)16(22)24-14-9-8-12(13(21)11-20-7)10-15(14)25-17(23)19(4,5)6/h8-10,13,20-21H,11H2,1-7H3",351.43726,-5.766092492095,-0.6176984406350003,5.1483940514599995,3.5130798262728105
000003106,CCCN(CCc1ccc(c(c1)O)O)CCC,C14H23NO2,"InChI=1S/C14H23NO2/c1-3-8-15(9-4-2)10-7-12-5-6-13(16)14(17)11-12/h5-6,11,16-17H,3-4,7-10H2,1-2H3",237.33792,-5.36064285485,0.22857563442000028,5.58921848927,2.9977065200392783
000003107,CCC(C(C(=O)O)NC(=O)C1CCCN1C(=O)C(C(CC)C)N)C,C17H31N3O4,"InChI=1S/C17H31N3O4/c1-5-10(3)13(18)16(22)20-9-7-8-12(20)15(21)19-14(17(23)24)11(4)6-2/h10-14H,5-9,18H2,1-4H3,(H,19,21)(H,23,24)",341.44574,-5.96473560296,-0.08163415514999972,5.8831014478100006,2.6004344463344964
000003109,[O-][n+]1ccccc1SSc1cccc[n+]1[O-],C10H8N2O2S2,InChI=1S/C10H8N2O2S2/c13-11-7-3-1-5-9(11)15-16-10-6-2-4-8-12(10)14/h1-8H,252.31272,-5.776977046114999,-1.6490099340300004,4.127967112084999,4.936991783599705
000003111,CN(c1c(C)n(n(c1=O)c1ccccc1)C)CS(=O)(=O)O,C13H17N3O4S,"InChI=1S/C13H17N3O4S/c1-10-12(14(2)9-21(18,19)20)13(17)16(15(10)3)11-7-5-4-6-8-11/h4-8H,9H2,1-3H3,(H,18,19,20)",311.35678,-5.9320819409,-1.0857342634950005,4.846347677404999,6.583277695407736
000003112,OC(=O)CCC1=C(CC(=O)O)C(=NC1)CC1N=C(C(=C1CCC(=O)O)CC(=O)O)C,C20H24N2O8,"InChI=1S/C20H24N2O8/c1-10-13(6-19(27)28)12(3-5-18(25)26)16(22-10)8-15-14(7-20(29)30)11(9-21-15)2-4-17(23)24/h16H,2-9H2,1H3,(H,23,24)(H,25,26)(H,27,28)(H,29,30)",420.41316,-6.794682846985,-1.9809888316400004,4.813694015345,5.13448038329732
000003114,CC(N(C(C)C)CCC(c1ccccn1)(c1ccccc1)C(=O)N)C,C21H29N3O,"InChI=1S/C21H29N3O/c1-16(2)24(17(3)4)15-13-21(20(22)25,18-10-6-5-7-11-18)19-12-8-9-14-23-19/h5-12,14,16-17H,13,15H2,1-4H3,(H2,22,25)",339.47446,-5.118461527905,-0.9850521388100004,4.133409389094999,4.214708345190329
000003115,O=CNc1cn(c(c1)C(=O)Nc1cn(c(c1)C(=O)Nc1cn(c(c1)C(=O)NCCC(=N)N)C)C)C,C22H27N9O4,"InChI=1S/C22H27N9O4/c1-29-9-13(26-12-32)6-17(29)21(34)28-15-8-18(31(3)11-15)22(35)27-14-7-16(30(2)10-14)20(33)25-5-4-19(23)24/h6-12H,4-5H2,1-3H3,(H3,23,24)(H,25,33)(H,26,32)(H,27,35)(H,28,34)",481.50768,-5.216422514085,-0.9932155543250003,4.22320695976,1.7776100624999285
000003117,CCN(C(=S)SSC(=S)N(CC)CC)CC,C10H20N2S4,"InChI=1S/C10H20N2S4/c1-5-11(6-2)9(13)15-16-10(14)12(7-3)8-4/h5-8H2,1-4H3",296.5392,-5.390575378405,-1.640846518515,3.74972885989,3.0531838811190197
000003118,CCSCCSP(=S)(OCC)OCC,C8H19O2PS3,"InChI=1S/C8H19O2PS3/c1-4-9-11(12,10-5-2)14-8-7-13-6-3/h4-8H2,1-3H3",274.404021,-6.155215298310001,-0.09251870917000016,6.062696589140001,4.71615164069806
000003120,O=C(N(C)C)Nc1ccc(c(c1)Cl)Cl,C9H10Cl2N2O,"InChI=1S/C9H10Cl2N2O/c1-13(2)9(14)12-6-3-4-7(10)8(11)5-6/h3-5H,1-2H3,(H,12,14)",233.0945,-5.9320819409,-0.454430130335,5.477651810565,6.5588797222313815
000003121,CCCC(C(=O)O)CCC,C8H16O2,"InChI=1S/C8H16O2/c1-3-5-7(6-4-2)8(9)10/h7H,3-6H2,1-2H3,(H,9,10)",144.21144,-7.279045500875,0.25850815797500015,7.53755365885,4.267077727993949
000003122,NC(C(=O)O)CCCCCP(=O)(O)O,C7H16NO5P,"InChI=1S/C7H16NO5P/c8-6(7(9)10)4-2-1-3-5-14(11,12)13/h6H,1-5,8H2,(H,9,10)(H2,11,12,13)",225.179401,-6.685837306785,0.16326831030000033,6.849105617085001,4.84826753707198
000003123,NC(C(=O)O)CCCCCCP(=O)(O)O,C8H18NO5P,"InChI=1S/C8H18NO5P/c9-7(8(10)11)5-3-1-2-4-6-15(12,13)14/h7H,1-6,9H2,(H,10,11)(H2,12,13,14)",239.205981,-6.683116168280001,0.16871058730999966,6.85182675559,1.8835670379906844
000003124,CC1CNc2c(N1)c(=O)nc([nH]2)N,C7H11N5O,"InChI=1S/C7H11N5O/c1-3-2-9-5-4(10-3)6(13)12-7(8)11-5/h3,10H,2H2,1H3,(H4,8,9,11,12,13)",181.19514,-4.933424109565,-0.10884554019999992,4.824578569365,6.655894495971672
000003125,Oc1ccc(cc1)CC(C(=O)O)(N)C,C10H13NO3,"InChI=1S/C10H13NO3/c1-10(11,9(13)14)6-7-2-4-8(12)5-3-7/h2-5,12H,6,11H2,1H3,(H,13,14)",195.21512,-6.141609605785001,-0.4898049309000001,5.651804674885001,5.5661479300900725
000003126,CCCCCCCCCCCCCCCC(C(CO)N)O,C18H39NO2,"InChI=1S/C18H39NO2/c1-2-3-4-5-6-7-8-9-10-11-12-13-14-15-18(21)17(19)16-20/h17-18,20-21H,2-16,19H2,1H3",301.50776,-6.171542129340001,1.4340399921350002,7.605582121475001,2.4821265502322802
000003127,CC(Cc1ccc(cc1)Cl)N,C9H12ClN,"InChI=1S/C9H12ClN/c1-7(11)6-8-2-4-9(10)5-3-8/h2-5,7H,6,11H2,1H3",169.65128,-6.04636975811,-0.3673536981750001,5.679016059935,2.1733735813619344
000003128,CNC(Cc1ccc(cc1)Cl)C,C10H14ClN,"InChI=1S/C10H14ClN/c1-8(12-2)7-9-3-5-10(11)6-4-9/h3-6,8,12H,7H2,1-2H3",183.67786,-5.90487055585,-0.32653662059999977,5.57833393525,2.448085376225674
000003129,CCCCCCCCCC(=O)NC(C(c1ccccc1)O)CN1CCOCC1,C23H38N2O3,"InChI=1S/C23H38N2O3/c1-2-3-4-5-6-7-11-14-22(26)24-21(19-25-15-17-28-18-16-25)23(27)20-12-9-8-10-13-20/h8-10,12-13,21,23,27H,2-7,11,14-19H2,1H3,(H,24,26)",390.55942,-5.62731442834,-0.14694147926999968,5.48037294907,1.3657946030121073
000003132,SCC(C(=O)NCC(=O)O)Cc1ccccc1,C12H15NO3S,"InChI=1S/C12H15NO3S/c14-11(15)7-13-12(16)10(8-17)6-9-4-2-1-3-5-9/h1-5,10,17H,6-8H2,(H,13,16)(H,14,15)",253.3174,-6.587876320605,-0.5061317619299999,6.081744558675,3.7780511865250053
000003133,COc1cc(C=CC(=O)OCCc2ccccc2)ccc1OC,C19H20O4,"InChI=1S/C19H20O4/c1-21-17-10-8-16(14-18(17)22-2)9-11-19(20)23-13-12-15-6-4-3-5-7-15/h3-11,14H,12-13H2,1-2H3",312.3597,-5.570170519735,-1.4476456846600003,4.122524835075,2.82947035927963
000003134,CN(c1ncnc2c1[nH]cn2)C,C7H9N5,"InChI=1S/C7H9N5/c1-12(2)7-5-6(9-3-8-5)10-4-11-7/h3-4H,1-2H3,(H,8,9,10,11)",163.17986,-6.016437234555,-1.0041001083449999,5.01233712621,6.867351485040576
000003135,O=C1Nc2c(C1=Cc1ccc(cc1)N(C)C)cccc2,C17H16N2O,"InChI=1S/C17H16N2O/c1-19(2)13-9-7-12(8-10-13)11-15-14-5-3-4-6-16(14)18-17(15)20/h3-11H,1-2H3,(H,18,20)",264.32174,-5.308941223255,-1.5646546403750001,3.74428658288,4.2784502299392235
000003136,COC1=C(OC)C(=O)c2c(C1=O)cccc2,C12H10O4,"InChI=1S/C12H10O4/c1-15-11-9(13)7-5-3-4-6-8(7)10(14)12(11)16-2/h3-6H,1-2H3",218.2054,-6.228686037945,-2.7347441975250004,3.4939418404199993,1.2884083513432378
000003139,COc1cc(OC)cc2c1cc(cn2)c1ccncc1,C16H14N2O2,"InChI=1S/C16H14N2O2/c1-19-13-8-15-14(16(9-13)20-2)7-12(10-18-15)11-3-5-17-6-4-11/h3-10H,1-2H3",266.29456,-5.640920120865,-1.3306367289449996,4.3102833919200005,4.586781238590849
000003140,O=C1N=c2cc([N+](=O)[O-])c(cc2=NC1=O)[N+](=O)[O-],C8H2N4O6,InChI=1S/C8H2N4O6/c13-7-8(14)10-4-2-6(12(17)18)5(11(15)16)1-3(4)9-7/h1-2H,250.12468,-7.4994577197800005,-5.366085131859999,2.133372587920001,0.02754367435546681
000003141,CC(Cc1cccc(c1)O)CNCCc1ccc(c(c1)O)O,C18H23NO3,"InChI=1S/C18H23NO3/c1-13(9-15-3-2-4-16(20)10-15)12-19-8-7-14-5-6-17(21)18(22)11-14/h2-6,10-11,13,19-22H,7-9,12H2,1H3",301.38012,-5.40962334794,0.054422770100000406,5.464046118040001,1.8207956867809194
000003142,CSCCC(C(=O)NCCc1ccc(c(c1)OC(=O)OCC)OC(=O)OCC)NC(=O)C,C21H30N2O8S,"InChI=1S/C21H30N2O8S/c1-5-28-20(26)30-17-8-7-15(13-18(17)31-21(27)29-6-2)9-11-22-19(25)16(10-12-32-4)23-14(3)24/h7-8,13,16H,5-6,9-12H2,1-4H3,(H,22,25)(H,23,24)",470.5365,-5.940245356415,-0.16326831030000033,5.776977046114999,3.703330552948656
000003144,CCC=CCC=CCC=CCC=CCC=CCC=CCCC(=O)O,C22H32O2,"InChI=1S/C22H32O2/c1-2-3-4-5-6-7-8-9-10-11-12-13-14-15-16-17-18-19-20-21-22(23)24/h3-4,6-7,9-10,12-13,15-16,18-19H,2,5,8,11,14,17,20-21H2,1H3,(H,23,24)",328.48828,-6.1797055448550005,0.11156667870499959,6.29127222356,4.39002072120907
000003145,CCC=CCC=CCC=CCC=CCC=CCCCCCC(=O)O,C22H34O2,"InChI=1S/C22H34O2/c1-2-3-4-5-6-7-8-9-10-11-12-13-14-15-16-17-18-19-20-21-22(23)24/h3-4,6-7,9-10,12-13,15-16H,2,5,8,11,14,17-21H2,1H3,(H,23,24)",330.50416,-6.1878689603699994,0.22585449591499973,6.413723456284999,4.171087407770186
000003146,CCC=CCC=CCC=CCCCCCCCCCCCC(=O)O,C22H38O2,"InChI=1S/C22H38O2/c1-2-3-4-5-6-7-8-9-10-11-12-13-14-15-16-17-18-19-20-21-22(23)24/h3-4,6-7,9-10H,2,5,8,11-21H2,1H3,(H,23,24)",334.53592,-6.147051882795,0.23673904993500017,6.38379093273,4.206333159105802
000003150,OC(=O)CC1C(CNC1C(=O)O)C(=CC=CC(C(=O)O)C)C,C15H21NO6,"InChI=1S/C15H21NO6/c1-8(4-3-5-9(2)14(19)20)11-7-16-13(15(21)22)10(11)6-12(17)18/h3-5,9-11,13,16H,6-7H2,1-2H3,(H,17,18)(H,19,20)(H,21,22)",311.33034,-6.125282774755,-1.053080601435,5.07220217332,5.719157384164734
000003151,Clc1ccc2c(c1)[nH]c(=O)n2C1CCN(CC1)CCCn1c(=O)[nH]c2c1cccc2,C22H24ClN5O2,"InChI=1S/C22H24ClN5O2/c23-15-6-7-20-18(14-15)25-22(30)28(20)16-8-12-26(13-9-16)10-3-11-27-19-5-2-1-4-17(19)24-21(27)29/h1-2,4-7,14,16H,3,8-13H2,(H,24,29)(H,25,30)",425.91126,-5.390575378405,-0.5605545320300003,4.830020846375,2.745061442162816
000003152,COc1cc2c(cc1OC)CC(C2=O)CC1CCN(CC1)Cc1ccccc1,C24H29NO3,"InChI=1S/C24H29NO3/c1-27-22-14-19-13-20(24(26)21(19)15-23(22)28-2)12-17-8-10-25(11-9-17)16-18-6-4-3-5-7-18/h3-7,14-15,17,20H,8-13,16H2,1-2H3",379.49196,-5.488536364585,-1.0285903548899995,4.459946009695001,4.531326855214265
000003153,NC1CCc2c(C1)cc(c(c2)O)O,C10H13NO2,"InChI=1S/C10H13NO2/c11-8-2-1-6-4-9(12)10(13)5-7(6)3-8/h4-5,8,12-13H,1-3,11H2",179.21572,-5.3062200847500005,0.1578260332900001,5.464046118040001,3.521309511856917
000003154,CCNC1CC(C)S(=O)(=O)c2c1cc(s2)S(=O)(=O)N,C10H16N2O4S3,"InChI=1S/C10H16N2O4S3/c1-3-12-8-4-6(2)18(13,14)10-7(8)5-9(17-10)19(11,15)16/h5-6,8,12H,3-4H2,1-2H3,(H2,11,15,16)",324.44004,-6.642299090705,-1.92656606154,4.715733029165,7.128157311568117
000003155,CN(CCC=C1c2ccccc2SCc2c1cccc2)C,C19H21NS,"InChI=1S/C19H21NS/c1-20(2)13-7-11-17-16-9-4-3-8-15(16)14-21-19-12-6-5-10-18(17)19/h3-6,8-12H,7,13-14H2,1-2H3",295.44174,-5.3878542399,-0.4952472079100003,4.89260703199,1.9574191063277684
000003156,CCN1CC(C(C1=O)(c1ccccc1)c1ccccc1)CCN1CCOCC1,C24H30N2O2,"InChI=1S/C24H30N2O2/c1-2-26-19-22(13-14-25-15-17-28-18-16-25)24(23(26)27,20-9-5-3-6-10-20)21-11-7-4-8-12-21/h3-12,22H,2,13-19H2,1H3",378.5072,-5.66541036741,-0.26395043498500037,5.401459932424999,2.671375412410244
000003157,COc1cc2nc(nc(c2cc1OC)N)N1CCN(CC1)C(=O)C1COc2c(O1)cccc2,C23H25N5O5,"InChI=1S/C23H25N5O5/c1-30-18-11-14-15(12-19(18)31-2)25-23(26-21(14)24)28-9-7-27(8-10-28)22(29)20-13-32-16-5-3-4-6-17(16)33-20/h3-6,11-12,20H,7-10,13H2,1-2H3,(H2,24,25,26)",451.4751,-5.047711926775,-0.8245049670149998,4.223206959760001,4.9326574836891925
000003158,CN(CCC=C1c2ccccc2OCc2c1cccc2)C,C19H21NO,"InChI=1S/C19H21NO/c1-20(2)13-7-11-17-16-9-4-3-8-15(16)14-21-19-12-6-5-10-18(17)19/h3-6,8-12H,7,13-14H2,1-2H3",279.37614,-5.504863195615,-0.6775634877450001,4.82729970787,1.8521491395279162
000003159,CC1OC(C(C1O)O)n1cc(F)c(=O)[nH]c1=O,C9H11FN2O5,"InChI=1S/C9H11FN2O5/c1-3-5(13)6(14)8(17-3)12-2-4(10)7(15)11-9(12)16/h2-3,5-6,8,13-14H,1H3,(H,11,15,16)",246.1924432,-6.50352102695,-1.4394822691450004,5.064038757804999,4.618144049751264
000003162,CN(CCOC(c1ccccn1)(c1ccccc1)C)C,C17H22N2O,"InChI=1S/C17H22N2O/c1-17(20-14-13-19(2)3,15-9-5-4-6-10-15)16-11-7-8-12-18-16/h4-12H,13-14H2,1-3H3",270.36938,-5.90487055585,-0.5904870555850001,5.3143835002649995,1.524236626936251
000003164,O=C1NCC(c2c1cccc2)OCCCCN1CCCCC1,C18H26N2O2,"InChI=1S/C18H26N2O2/c21-18-16-9-3-2-8-15(16)17(14-19-18)22-13-7-6-12-20-10-4-1-5-11-20/h2-3,8-9,17H,1,4-7,10-14H2,(H,19,21)",302.41124,-5.493978641595,-1.0666862939600001,4.4272923476349995,2.3663927702015153