mol_id,SMILES,formula,inchi,mass,HOMO(eV),LUMO(eV),GAP(eV),dipole_moment
000005331,NS(=O)(=O)OCC12OCC3C(C2OC(O1)(C)C)OS(=O)(=O)O3,C9H15NO10S2,"InChI=1S/C9H15NO10S2/c1-8(2)17-7-6-5(18-22(13,14)19-6)3-15-9(7,20-8)4-16-21(10,11)12/h5-7H,3-4H2,1-2H3,(H2,10,11,12)",361.3461,-7.562043905395,-0.6530732412000004,6.9089706641949995,6.79133867649825
000005332,COc1ncnc(c1)NS(=O)(=O)c1ccc(cc1)N,C11H12N4O3S,"InChI=1S/C11H12N4O3S/c1-18-11-6-10(13-7-14-11)15-19(16,17)9-4-2-8(12)3-5-9/h2-7H,12H2,1H3,(H,13,14,15)",280.30298,-5.956572187445,-0.9006968451550001,5.05587534229,7.109324599072194
000005333,Nc1ccc(cc1)S(=O)(=O)N,C6H8N2O2S,"InChI=1S/C6H8N2O2S/c7-5-1-3-6(4-2-5)11(8,9)10/h1-4H,7H2,(H2,8,9,10)",172.20492,-5.91031283286,-0.6285829946549999,5.281729838205,6.096721598268614
000005334,CC(=O)Nc1ccc(cc1)S(=O)(=O)Nc1ccc(cc1)[N+](=O)[O-],C14H13N3O5S,"InChI=1S/C14H13N3O5S/c1-10(18)15-11-4-8-14(9-5-11)23(21,22)16-12-2-6-13(7-3-12)17(19)20/h2-9,16H,1H3,(H,15,18)",335.33512,-6.3130413316,-2.0381327402449996,4.2749085913550005,10.446507196895862
000005335,Nc1ccc(cc1)S(=O)(=O)Nc1ccnn1c1ccccc1,C15H14N4O2S,"InChI=1S/C15H14N4O2S/c16-12-6-8-14(9-7-12)22(20,21)18-15-10-11-17-19(15)13-4-2-1-3-5-13/h1-11,18H,16H2",314.36226,-6.0572543121299995,-0.8925334296400003,5.164720882489999,6.2340675292766115
000005336,Nc1ccc(cc1)S(=O)(=O)Nc1ccccn1,C11H11N3O2S,"InChI=1S/C11H11N3O2S/c12-9-4-6-10(7-5-9)17(15,16)14-11-3-1-2-8-13-11/h1-8H,12H2,(H,13,14)",249.28894,-5.771534769105,-0.7728033354199999,4.998731433685,7.259155348519619
000005338,Nc1ccc(cc1)S(=O)(=O)Nc1cnc2c(n1)cccc2,C14H12N4O2S,"InChI=1S/C14H12N4O2S/c15-10-5-7-11(8-6-10)21(19,20)18-14-9-16-12-3-1-2-4-13(12)17-14/h1-9H,15H2,(H,17,18)",300.33568,-5.866774616780001,-1.6136351334650003,4.2531394833150005,7.847410493290956
000005340,Nc1ccc(cc1)S(=O)(=O)Nc1nccs1,C9H9N3O2S2,"InChI=1S/C9H9N3O2S2/c10-7-1-3-8(4-2-7)16(13,14)12-9-11-5-6-15-9/h1-6H,10H2,(H,11,12)",255.31666,-5.700785167975,-0.9768887232950005,4.723896444679999,7.224407939931064
000005342,O=C1N(c2ccccc2)N(C(=O)C1CCS(=O)c1ccccc1)c1ccccc1,C23H20N2O3S,"InChI=1S/C23H20N2O3S/c26-22-21(16-17-29(28)20-14-8-3-9-15-20)23(27)25(19-12-6-2-7-13-19)24(22)18-10-4-1-5-11-18/h1-15,21H,16-17H2",404.4815,-5.842284370235,-1.009542385355,4.83274198488,3.362998471696055
000005343,Nc1ccc(cc1)S(=O)(=O)Nc1cc(C)nc(n1)C,C12H14N4O2S,"InChI=1S/C12H14N4O2S/c1-8-7-12(15-9(2)14-8)16-19(17,18)11-5-3-10(13)4-6-11/h3-7H,13H2,1-2H3,(H,14,15,16)",278.33016,-6.021879511565,-1.0149846623650003,5.0068948492,7.490342708032924
000005344,Nc1ccc(cc1)S(=O)(=O)Nc1onc(c1C)C,C11H13N3O3S,"InChI=1S/C11H13N3O3S/c1-7-8(2)13-17-11(7)14-18(15,16)10-5-3-9(12)4-6-10/h3-6,14H,12H2,1-2H3",267.30422,-5.766092492095,-1.053080601435,4.71301189066,6.996009296358174
000005350,S=C=NCCCCS(=O)C,C6H11NOS2,"InChI=1S/C6H11NOS2/c1-10(8)5-3-2-4-7-6-9/h2-5H2,1H3",177.28764,-6.29127222356,-0.2775561275099996,6.0137160960500005,4.151032012304772
000005351,OS(=O)CNc1ccc(cc1)S(=O)(=O)c1ccc(cc1)NCS(=O)O,C14H16N2O6S3,"InChI=1S/C14H16N2O6S3/c17-23(18)9-15-11-1-5-13(6-2-11)25(21,22)14-7-3-12(4-8-14)16-10-24(19)20/h1-8,15-16H,9-10H2,(H,17,18)(H,19,20)",404.48164,-5.896707140335001,-1.10478223303,4.791924907305001,5.550409449340742
000005352,OC(=O)CC1=C(C)C(=Cc2ccc(cc2)S(=O)C)c2c1cc(F)cc2,C20H17FO3S,"InChI=1S/C20H17FO3S/c1-12-17(9-13-3-6-15(7-4-13)25(2)24)16-8-5-14(21)10-19(16)18(12)11-20(22)23/h3-10H,11H2,1-2H3,(H,22,23)",356.4105832,-6.128003913260001,-2.1034400643649995,4.024563848895001,5.708129851433393
000005353,COc1cc(ccc1c1nc2c([nH]1)cccn2)S(=O)C,C14H13N3O2S,"InChI=1S/C14H13N3O2S/c1-19-12-8-9(20(2)18)5-6-10(12)13-16-11-4-3-7-15-14(11)17-13/h3-8H,1-2H3,(H,15,16,17)",287.33692,-5.78514046163,-1.7197595351599997,4.0653809264700005,4.110647882619235
000005354,CCCCCCCCNC(C(c1ccc(cc1)SC(C)C)O)C,C20H35NOS,"InChI=1S/C20H35NOS/c1-5-6-7-8-9-10-15-21-17(4)20(22)18-11-13-19(14-12-18)23-16(2)3/h11-14,16-17,20-22H,5-10,15H2,1-4H3",337.563,-5.4966997801,-0.144220340765,5.352479439335,2.20717868713591
000005355,CCN1CCCC1CNC(=O)c1cc(ccc1OC)S(=O)(=O)N,C15H23N3O4S,"InChI=1S/C15H23N3O4S/c1-3-18-8-4-5-11(18)10-17-15(19)13-9-12(23(16,20)21)6-7-14(13)22-2/h6-7,9,11H,3-5,8,10H2,1-2H3,(H,17,19)(H2,16,20,21)",341.42582,-6.000110403525,-1.1592050031300003,4.840905400395,7.934390697388805
000005356,O=S1(=O)CCCCN1c1ccc(cc1)S(=O)(=O)N,C10H14N2O4S2,"InChI=1S/C10H14N2O4S2/c11-18(15,16)10-5-3-9(4-6-10)12-7-1-2-8-17(12,13)14/h3-6H,1-2,7-8H2,(H2,11,15,16)",290.35916,-6.16065757532,-0.9061391221650004,5.254518453155,6.3490222102094584
000005357,CCN1CCCC1CNC(=O)c1cc(ccc1OC)S(=O)(=O)CC,C17H26N2O4S,"InChI=1S/C17H26N2O4S/c1-4-19-10-6-7-13(19)12-18-17(20)15-11-14(24(21,22)5-2)8-9-16(15)23-3/h8-9,11,13H,4-7,10,12H2,1-3H3,(H,18,20)",354.46434,-5.542959134685,-1.2707716818349999,4.27218745285,6.343391923930682
000005358,CNS(=O)(=O)Cc1ccc2c(c1)c(CCN(C)C)c[nH]2,C14H21N3O2S,"InChI=1S/C14H21N3O2S/c1-15-20(18,19)10-11-4-5-14-13(8-11)12(9-16-14)6-7-17(2)3/h4-5,8-9,15-16H,6-7,10H2,1-3H3",295.40044,-5.396017655415,-0.29932523554999957,5.0966924198650005,2.3957962509251494
000005359,OC(=O)C(c1ccc(cc1)C(=O)c1cccs1)C,C14H12O3S,"InChI=1S/C14H12O3S/c1-9(14(16)17)10-4-6-11(7-5-10)13(15)12-3-2-8-18-12/h2-9H,1H3,(H,16,17)",260.30828,-6.9225763567200005,-1.9564985850949999,4.966077771625001,6.137347891611571
000005362,CCCCC1(COC(=O)CCC(=O)O)C(=O)N(N(C1=O)c1ccccc1)c1ccccc1,C24H26N2O6,"InChI=1S/C24H26N2O6/c1-2-3-16-24(17-32-21(29)15-14-20(27)28)22(30)25(18-10-6-4-7-11-18)26(23(24)31)19-12-8-5-9-13-19/h4-13H,2-3,14-17H2,1H3,(H,27,28)",438.47304,-6.054533173625,-1.1564838646250006,4.898049308999999,5.965197443751633
000005363,OC1CN2C(C1O)C(O)CCC2,C8H15NO3,"InChI=1S/C8H15NO3/c10-5-2-1-3-9-4-6(11)8(12)7(5)9/h5-8,10-12H,1-4H2",173.2096,-6.1143982207350005,1.2571659893099998,7.371564210045,2.998539459603625
000005365,OC(=O)C(CC(C(=O)O)N)C,C6H11NO4,"InChI=1S/C6H11NO4/c1-3(5(8)9)2-4(7)6(10)11/h3-4H,2,7H2,1H3,(H,8,9)(H,10,11)",161.15584,-7.12394060609,-0.6476309641900002,6.4763096418999995,6.295804301346254
000005370,OC(=O)C1CC(N1)C(=O)O,C5H7NO4,"InChI=1S/C5H7NO4/c7-4(8)2-1-3(6-2)5(9)10/h2-3,6H,1H2,(H,7,8)(H,9,10)",145.11338,-7.08040239001,-0.57688136306,6.50352102695,3.266748050822102
000005371,OC1CC(O)C(=C)C(=CC=C2CCCC3(C2CCCC3C(CCC(C(C)C)O)C)C)C1,C28H46O3,"InChI=1S/C28H46O3/c1-18(2)26(30)14-11-19(3)24-9-6-10-25-21(8-7-15-28(24,25)5)12-13-22-16-23(29)17-27(31)20(22)4/h12-13,18-19,23-27,29-31H,4,6-11,14-17H2,1-3,5H3",430.66304,-6.07358114316,-0.3782382521949996,5.695342890965001,0.9479803271360646
000005373,O=C(C(c1ccccc1)N)NC1C(=O)N2C1SC(C2C(=O)OC1OC(=O)c2c1cccc2)(C)C,C24H23N3O6S,"InChI=1S/C24H23N3O6S/c1-24(2)17(22(31)33-23-14-11-7-6-10-13(14)21(30)32-23)27-19(29)16(20(27)34-24)26-18(28)15(25)12-8-4-3-5-9-12/h3-11,15-17,20,23H,25H2,1-2H3,(H,26,28)",481.52092,-5.793303877145,-1.994594524165,3.79870935298,6.7778906401638706
000005374,C=CCN1CCc2c(CC1)nc(s2)N,C10H15N3S,"InChI=1S/C10H15N3S/c1-2-5-13-6-3-8-9(4-7-13)14-10(11)12-8/h2H,1,3-7H2,(H2,11,12)",209.3112,-5.31710463877,0.03809593906999975,5.35520057784,1.4454603430426585
000005375,CN1C(=O)CC(NC1=O)C(=O)NC(C(=O)N1CCCC1C(=O)N)Cc1[nH]cnc1,C17H23N7O5,"InChI=1S/C17H23N7O5/c1-23-13(25)6-10(22-17(23)29)15(27)21-11(5-9-7-19-8-20-9)16(28)24-4-2-3-12(24)14(18)26/h7-8,10-12H,2-6H2,1H3,(H2,18,26)(H,19,20)(H,21,27)(H,22,29)",405.40842,-6.10623480522,-0.62041957914,5.48581522608,2.345795598627681
000005376,CCC(=C(c1ccccc1)c1ccc(cc1)OCCN(C)C)c1ccccc1,C26H29NO,"InChI=1S/C26H29NO/c1-4-25(21-11-7-5-8-12-21)26(22-13-9-6-10-14-22)23-15-17-24(18-16-23)28-20-19-27(2)3/h5-18H,4,19-20H2,1-3H3",371.51456,-5.396017655415,-0.42993988379000037,4.966077771625,1.916090522935438
000005377,CCC(=C(c1cccc(c1)O)c1ccc(cc1)OCCN(C)C)c1ccccc1,C26H29NO2,"InChI=1S/C26H29NO2/c1-4-25(20-9-6-5-7-10-20)26(22-11-8-12-23(28)19-22)21-13-15-24(16-14-21)29-18-17-27(2)3/h5-16,19,28H,4,17-18H2,1-3H3",387.51396,-5.2490761761449996,-0.41089191425500005,4.8381842618899995,2.538008385099624
000005378,O=C1N(CCCCN2CCN(CC2)c2ncccn2)C(=O)C2C1C1CCC2C1,C21H29N5O2,"InChI=1S/C21H29N5O2/c27-19-17-15-4-5-16(14-15)18(17)20(28)26(19)9-2-1-8-24-10-12-25(13-11-24)21-22-6-3-7-23-21/h3,6-7,15-18H,1-2,4-5,8-14H2",383.48726,-5.0830867273399996,-0.6938903187749998,4.389196408565,2.4407351763757577
000005379,COc1c(N2CCNC(C2)C)c(F)cc2c1n(cc(c2=O)C(=O)O)C1CC1,C19H22FN3O4,"InChI=1S/C19H22FN3O4/c1-10-8-22(6-5-21-10)16-14(20)7-12-15(18(16)27-2)23(11-3-4-11)9-13(17(12)24)19(25)26/h7,9-11,21H,3-6,8H2,1-2H3,(H,25,26)",375.3940832,-5.793303877145,-1.537443255325,4.25586062182,10.615614676805155
000005380,CCCCOC(=O)C(=O)Nc1cccc(c1)c1n[nH]nn1,C13H15N5O3,"InChI=1S/C13H15N5O3/c1-2-3-7-21-13(20)12(19)14-10-6-4-5-9(8-10)11-15-17-18-16-11/h4-6,8H,2-3,7H2,1H3,(H,14,19)(H,15,16,17,18)",289.2899,-6.3130413316,-1.4449245461549998,4.868116785445,5.617757578501052
000005381,CCOC(=O)c1ccc(nc1)C#Cc1ccc2c(c1)C(C)(C)CCS2,C21H21NO2S,"InChI=1S/C21H21NO2S/c1-4-24-20(23)16-7-9-17(22-14-16)8-5-15-6-10-19-18(13-15)21(2,3)11-12-25-19/h6-7,9-10,13-14H,4,11-12H2,1-3H3",351.46194,-5.493978641595,-1.97010427762,3.5238743639749996,3.03224345234498
000005382,Clc1cnc(c(c1)Cl)Oc1ccc(cc1)Oc1ncc(cc1Cl)Cl,C16H8Cl4N2O2,InChI=1S/C16H8Cl4N2O2/c17-9-5-13(19)15(21-7-9)23-11-1-2-12(4-3-11)24-16-14(20)6-10(18)8-22-16/h1-8H,402.05892,-6.141609605785001,-1.4258765766200003,4.715733029165,0.36318337709757587
000005383,CNC(=O)N(c1nnc(s1)C(C)(C)C)C,C9H16N4OS,"InChI=1S/C9H16N4OS/c1-9(2,3)6-11-12-8(15-6)13(5)7(14)10-4/h1-5H3,(H,10,14)",228.31454,-5.815072985185,-0.25034474246000027,5.564728242725,5.806233519403607
000005385,COC(CN=C)(C)C,C6H13NO,"InChI=1S/C6H13NO/c1-6(2,8-4)5-7-3/h3,5H2,1-2,4H3",115.17352,-6.185147821865,-0.07891301664500006,6.10623480522,2.5525045936548283
000005386,O=c1[nH]c(=O)n(cc1F)C1CCCO1,C8H9FN2O3,"InChI=1S/C8H9FN2O3/c9-5-4-11(6-2-1-3-14-6)8(13)10-7(5)12/h4,6H,1-3H2,(H,10,12,13)",200.1670632,-6.307599054590001,-1.1728106956549995,5.134788358935001,5.187432148476353
000005387,CN1CCN(CC1)CC(=O)n1c2ccccc2[nH]c(=O)c2c1c(C)sc2,C19H22N4O2S,"InChI=1S/C19H22N4O2S/c1-13-18-14(12-26-13)19(25)20-15-5-3-4-6-16(15)23(18)17(24)11-22-9-7-21(2)8-10-22/h3-6,12H,7-11H2,1-2H3,(H,20,25)",370.46858,-5.175605436510001,-1.009542385355,4.1660630511550005,4.728515748687636
000005390,O=C(Nc1ccc2c(c1)nc1c(c2)ccc(c1)NC(=O)CCN1CCCCC1)CCN1CCCCC1,C29H37N5O2,"InChI=1S/C29H37N5O2/c35-28(11-17-33-13-3-1-4-14-33)30-24-9-7-22-19-23-8-10-25(21-27(23)32-26(22)20-24)31-29(36)12-18-34-15-5-2-6-16-34/h7-10,19-21H,1-6,11-18H2,(H,30,35)(H,31,36)",487.63638,-5.197374544550001,-1.6109139949600002,3.5864605495900004,2.7998362128312078
000005391,Clc1ccc2c(c1)C(=NC(C(=O)N2C)O)c1ccccc1,C16H13ClN2O2,"InChI=1S/C16H13ClN2O2/c1-19-13-8-7-11(17)9-12(13)14(18-15(20)16(19)21)10-5-3-2-4-6-10/h2-9,15,20H,1H3",300.73962,-6.29671450057,-1.68166359609,4.61505090448,3.848636386657747
000005392,COP(=S)(Oc1ccc(cc1)Sc1ccc(cc1)OP(=S)(OC)OC)OC,C16H20O6P2S3,"InChI=1S/C16H20O6P2S3/c1-17-23(25,18-2)21-13-5-9-15(10-6-13)27-16-11-7-14(8-12-16)22-24(26,19-3)20-4/h5-12H,1-4H3",466.468922,-5.640920120865,-0.6721212107349999,4.96879891013,4.987483154305887
000005393,CCOC(=O)C(NC1CSC(CN(C1=O)CC(=O)O)c1cccs1)CCc1ccccc1,C23H28N2O5S2,"InChI=1S/C23H28N2O5S2/c1-2-30-23(29)17(11-10-16-7-4-3-5-8-16)24-18-15-32-20(19-9-6-12-31-19)13-25(22(18)28)14-21(26)27/h3-9,12,17-18,20,24H,2,10-11,13-15H2,1H3,(H,26,27)",476.60882,-6.12256163625,-0.8544374905699996,5.268124145680001,4.185945963063068
000005394,NC(=O)c1ncn2c1nnn(c2=O)C,C6H6N6O2,"InChI=1S/C6H6N6O2/c1-11-6(14)12-2-8-3(4(7)13)5(12)9-10-11/h2H,1H3,(H2,7,13)",194.15084,-6.783798292965,-2.2313335740999998,4.552464718865,3.6080334282378814
000005395,OC1CC(C)(C)N(C(C1)(C)C)O,C9H19NO2,"InChI=1S/C9H19NO2/c1-8(2)5-7(11)6-9(3,4)10(8)12/h7,11-12H,5-6H2,1-4H3",173.25266,-5.951129910435,1.6354042415050003,7.5865341519400005,1.7752428111807692
000005398,CC(CC1NC(=O)C(C)N(C)C(=O)CNC(=O)C(=Cc2ccccc2)N(C1=O)C)C,C22H30N4O4,"InChI=1S/C22H30N4O4/c1-14(2)11-17-22(30)26(5)18(12-16-9-7-6-8-10-16)21(29)23-13-19(27)25(4)15(3)20(28)24-17/h6-10,12,14-15,17H,11,13H2,1-5H3,(H,23,29)(H,24,28)",414.498,-6.2041957914,-0.9469561997399998,5.25723959166,0.7973325659578945
000005399,CC(=CCCC(=CCCC(=O)C)C)CCC=C(CCC=C(C)C)C,C23H38O,"InChI=1S/C23H38O/c1-19(2)11-7-12-20(3)13-8-14-21(4)15-9-16-22(5)17-10-18-23(6)24/h11,13,15,17H,7-10,12,14,16,18H2,1-6H3",330.54722,-5.94296649492,-0.26395043498500037,5.679016059935,3.6177247465904587
000005400,CN(CC1Cc2c(C1=O)cccc2)C,C12H15NO,"InChI=1S/C12H15NO/c1-13(2)8-10-7-9-5-3-4-6-11(9)12(10)14/h3-6,10H,7-8H2,1-2H3",189.2536,-5.929360802395,-1.3796172220349998,4.54974358036,2.600689090549272
000005401,COc1cc2nc(nc(c2cc1OC)N)N1CCN(CC1)C(=O)C1CCCO1,C19H25N5O4,"InChI=1S/C19H25N5O4/c1-26-15-10-12-13(11-16(15)27-2)21-19(22-17(12)20)24-7-5-23(6-8-24)18(25)14-4-3-9-28-14/h10-11,14H,3-9H2,1-2H3,(H2,20,21,22)",387.4329,-4.993289156675,-0.829947244025,4.16334191265,2.595389481911723
000005402,CN(Cc1cccc2c1cccc2)CC=CC#CC(C)(C)C,C21H25N,"InChI=1S/C21H25N/c1-21(2,3)15-8-5-9-16-22(4)17-19-13-10-12-18-11-6-7-14-20(18)19/h5-7,9-14H,16-17H2,1-4H3",291.4299,-5.640920120865,-0.9469561997399998,4.693963921125,0.4830186184910474
000005403,OC(c1cc(O)cc(c1)O)CNC(C)(C)C,C12H19NO3,"InChI=1S/C12H19NO3/c1-12(2,3)13-7-11(16)8-4-9(14)6-10(15)5-8/h4-6,11,13-16H,7H2,1-3H3",225.28416,-5.7388811070450005,0.08707643215999994,5.8259575392050005,2.7071612577002133
000005405,OC(c1ccc(cc1)C(C)(C)C)CCCN1CCC(CC1)C(c1ccccc1)(c1ccccc1)O,C32H41NO2,"InChI=1S/C32H41NO2/c1-31(2,3)26-18-16-25(17-19-26)30(34)15-10-22-33-23-20-29(21-24-33)32(35,27-11-6-4-7-12-27)28-13-8-5-9-14-28/h4-9,11-14,16-19,29-30,34-35H,10,15,20-24H2,1-3H3",471.67344,-5.570170519735,-0.2557870194699996,5.314383500265,2.078517589160602
000005407,O=C1C=CC2(C(=C1)CCC1C2CCC2(C1CCC(=O)O2)C)C,C19H24O3,"InChI=1S/C19H24O3/c1-18-9-7-13(20)11-12(18)3-4-14-15(18)8-10-19(2)16(14)5-6-17(21)22-19/h7,9,11,14-16H,3-6,8,10H2,1-2H3",300.39206,-6.44909825685,-1.5347221168200003,4.91437614003,4.161482484952208
000005408,O=C1CCC2(C(=C1)CCC1C2CCC2(C1CCC2O)C)C,C19H28O2,"InChI=1S/C19H28O2/c1-18-9-7-13(20)11-12(18)3-4-14-15-5-6-17(21)19(15,2)10-8-16(14)18/h11,14-17,21H,3-10H2,1-2H3",288.42442,-6.234128314955,-1.1510415876150004,5.0830867273399996,3.837191660660437
000005410,CCC(=O)OC1CCC2C1(C)CCC1C2CCC2=CC(=O)CCC12C,C22H32O3,"InChI=1S/C22H32O3/c1-4-20(24)25-19-8-7-17-16-6-5-14-13-15(23)9-11-21(14,2)18(16)10-12-22(17,19)3/h13,16-19H,4-12H2,1-3H3",344.48768,-6.163378713825001,-1.0721285709699995,5.091250142855001,5.365290659712855
000005411,CCCCNc1ccc(cc1)C(=O)OCCN(C)C,C15H24N2O2,"InChI=1S/C15H24N2O2/c1-4-5-10-16-14-8-6-13(7-9-14)15(18)19-12-11-17(2)3/h6-9,16H,4-5,10-12H2,1-3H3",264.36326,-5.366085131859999,-0.6095350251200005,4.756550106739999,4.825451834649788
000005414,CCCCCCCCOCCOCCOCCOCCO,C16H34O5,"InChI=1S/C16H34O5/c1-2-3-4-5-6-7-9-18-11-13-20-15-16-21-14-12-19-10-8-17/h17H,2-16H2,1H3",306.43816,-6.664068198745,1.8013936903099994,8.465461889055,2.0396104954458827
000005417,COc1cc2CCN3C(c2cc1OC)Cc1c(C3)c(OC)c(cc1)OC,C21H25NO4,"InChI=1S/C21H25NO4/c1-23-18-6-5-13-9-17-15-11-20(25-3)19(24-2)10-14(15)7-8-22(17)12-16(13)21(18)26-4/h5-6,10-11,17H,7-9,12H2,1-4H3",355.4275,-5.05043306528,0.3374211746200002,5.3878542399,3.0438842156437222
000005418,COc1cc(ccc1OC)CC1NCCc2c1cc(OC)c(c2)OC,C20H25NO4,"InChI=1S/C20H25NO4/c1-22-17-6-5-13(10-18(17)23-2)9-16-15-12-20(25-4)19(24-3)11-14(15)7-8-21-16/h5-6,10-12,16,21H,7-9H2,1-4H3",343.4168,-5.074923311825,0.0897975706649996,5.164720882489999,3.6833143631227023
000005419,C1CN=C(N1)C1CCCc2c1cccc2,C13H16N2,"InChI=1S/C13H16N2/c1-2-6-11-10(4-1)5-3-7-12(11)13-14-8-9-15-13/h1-2,4,6,12H,3,5,7-9H2,(H,14,15)",200.27954,-5.749765661065,-0.16326831030000033,5.586497350765,2.1050893844758707
000005420,CC(NP(=O)(OP(=O)(NC(C)C)NC(C)C)NC(C)C)C,C12H32N4O3P2,"InChI=1S/C12H32N4O3P2/c1-9(2)13-20(17,14-10(3)4)19-21(18,15-11(5)6)16-12(7)8/h9-12H,1-8H3,(H2,13,14,17)(H2,15,16,18)",342.355002,-6.408281179275,1.0694074324649998,7.47768861174,4.19802609507397
000005423,CCCCCC=CCC(C=CC=CCCC(=O)O)O,C16H26O3,"InChI=1S/C16H26O3/c1-2-3-4-5-6-9-12-15(17)13-10-7-8-11-14-16(18)19/h6-10,13,15,17H,2-5,11-12,14H2,1H3,(H,18,19)",266.37584,-6.00283154203,-0.66395779522,5.33887374681,3.31970719828165
000005424,OC1=C(O)C(=O)C(=C(C1=O)O)O,C6H4O6,"InChI=1S/C6H4O6/c7-1-2(8)4(10)6(12)5(11)3(1)9/h7-8,11-12H",172.09236,-5.918476248375,-3.132030419255,2.78644582912,3.7371530296167963
000005425,OC(=O)C(C(C(=O)O)N)O,C4H7NO5,"InChI=1S/C4H7NO5/c5-1(3(7)8)2(6)4(9)10/h1-2,6H,5H2,(H,7,8)(H,9,10)",149.10208,-7.47768861174,-0.721101703825,6.756586907915,4.529919553261514
000005426,O=C1CCC(C(=O)N1)N1C(=O)c2c(C1=O)cccc2,C13H10N2O4,"InChI=1S/C13H10N2O4/c16-10-6-5-9(11(17)14-10)15-12(18)7-3-1-2-4-8(7)13(15)19/h1-4,9H,5-6H2,(H,14,16,17)",258.2295,-6.92801863373,-2.5388222251649992,4.389196408565001,5.434339184488396
000005429,Cn1cnc2c1c(=O)[nH]c(=O)n2C,C7H8N4O2,"InChI=1S/C7H8N4O2/c1-10-3-8-5-4(10)6(12)9-7(13)11(5)2/h3H,1-2H3,(H,9,12,13)",180.16402,-5.986504711,-1.1455993106050002,4.840905400395,3.9384182409270605
000005430,c1scc(n1)c1nc2c([nH]1)cccc2,C10H7N3S,"InChI=1S/C10H7N3S/c1-2-4-8-7(3-1)12-10(13-8)9-5-14-6-11-9/h1-6H,(H,12,13)",201.24768,-5.684458336945,-1.37145380652,4.313004530425,2.4584171945499813
000005433,OCC(C(c1ccc(cc1)S(=O)(=O)C)O)NC(=O)C(Cl)Cl,C12H15Cl2NO5S,"InChI=1S/C12H15Cl2NO5S/c1-21(19,20)8-4-2-7(3-5-8)10(17)9(6-16)15-12(18)11(13)14/h2-5,9-11,16-17H,6H2,1H3,(H,15,18)",356.2222,-7.11849832908,-1.4313188536300006,5.68717947545,5.070995101372905
000005434,NCC(=O)OCC(C(c1ccc(cc1)S(=O)(=O)C)O)NC(=O)C(Cl)Cl,C14H18Cl2N2O6S,"InChI=1S/C14H18Cl2N2O6S/c1-25(22,23)9-4-2-8(3-5-9)12(20)10(7-24-11(19)6-17)18-14(21)13(15)16/h2-5,10,12-13,20H,6-7,17H2,1H3,(H,18,21)",413.27352,-6.9116918027,-1.17553183416,5.73615996854,6.187337572808275
000005437,O=C1SCC(=O)N1,C3H3NO2S,"InChI=1S/C3H3NO2S/c5-2-1-7-3(6)4-2/h1H2,(H,4,5,6)",117.12642,-7.360679656025001,-1.0666862939600001,6.293993362065001,1.717848227799243
000005439,NC(=N)c1cc2c(s1)nccc2,C8H7N3S,"InChI=1S/C8H7N3S/c9-7(10)6-4-5-2-1-3-11-8(5)12-6/h1-4H,(H3,9,10)",177.22628,-6.386512071235,-1.5183952857899996,4.868116785445,3.337876753002873
000005440,CCSc1ccc2c(c1)N(CCCN1CCN(CC1)C)c1c(S2)cccc1,C22H29N3S2,"InChI=1S/C22H29N3S2/c1-3-26-18-9-10-22-20(17-18)25(19-7-4-5-8-21(19)27-22)12-6-11-24-15-13-23(2)14-16-24/h4-5,7-10,17H,3,6,11-16H2,1-2H3",399.61576,-4.732059860195,-0.5088529004350004,4.22320695976,2.9221865040154436
000005443,OC(=O)c1ccccc1S,C7H6O2S,"InChI=1S/C7H6O2S/c8-7(9)5-3-1-2-4-6(5)10/h1-4,10H,(H,8,9)",154.18634,-6.47086736489,-1.2109066347250002,5.259960730165,5.588476076528377
000005446,S=C1CC2C(C1(C)CC2)(C)C,C10H16S,"InChI=1S/C10H16S/c1-9(2)7-4-5-10(9,3)8(11)6-7/h7H,4-6H2,1-3H3",168.29904,-5.668131505915,-1.6789424575850003,3.98918904833,3.2117106327715765
000005447,OCCSCCO,C4H10O2S,"InChI=1S/C4H10O2S/c5-1-3-7-4-2-6/h5-6H,1-4H2",122.186,-6.285829946550001,1.0694074324649998,7.3552373790150005,1.0944253342010135
000005448,NCc1cc(=O)[nH]s1,C4H6N2OS,"InChI=1S/C4H6N2OS/c5-2-3-1-4(7)6-8-3/h1H,2,5H2,(H,6,7)",130.16824,-5.91575510987,-0.8571586290750002,5.058596480795,4.756186187861973
000005452,CSc1ccc2c(c1)N(CCC1CCCCN1C)c1c(S2)cccc1,C21H26N2S2,"InChI=1S/C21H26N2S2/c1-22-13-6-5-7-16(22)12-14-23-18-8-3-4-9-20(18)25-21-11-10-17(24-2)15-19(21)23/h3-4,8-11,15-16H,5-7,12-14H2,1-2H3",370.57454,-4.658589120559999,-0.4353821607999997,4.22320695976,1.5831647043453816
000005453,S=P(N1CC1)(N1CC1)N1CC1,C6H12N3PS,"InChI=1S/C6H12N3PS/c11-10(7-1-2-7,8-3-4-8)9-5-6-9/h1-6H2",189.218341,-6.0790234201699995,1.0884554020000001,7.16747882217,3.315695466958026
000005455,CN(C(=S)SSC(=S)N(C)C)C,C6H12N2S4,InChI=1S/C6H12N2S4/c1-7(2)5(9)11-12-6(10)8(3)4/h1-4H3,240.43288,-5.537516857675,-1.749692058715,3.7878247989599996,3.023427274723174
000005457,COc1ccc(cc1)CN(c1ncccn1)CCN(C)C,C16H22N4O,"InChI=1S/C16H22N4O/c1-19(2)11-12-20(16-17-9-4-10-18-16)13-14-5-7-15(21-3)8-6-14/h4-10H,11-13H2,1-3H3",286.37208,-5.55656482721,-0.6775634877450001,4.879001339465,2.065716920538