mol_id,SMILES,formula,inchi,mass,HOMO(eV),LUMO(eV),GAP(eV),dipole_moment
000003721,OC1C2CP(=O)(OC2C(C(C1O)O)O)O,C7H13O7P,"InChI=1S/C7H13O7P/c8-3-2-1-15(12,13)14-7(2)6(11)5(10)4(3)9/h2-11H,1H2,(H,12,13)",240.147681,-7.208295899745001,0.28844068153,7.496736581275001,3.494307321407921
000003744,OC(=O)CCc1c[nH]c2c1cccc2,C11H11NO2,"InChI=1S/C11H11NO2/c13-11(14)6-5-8-7-12-10-4-2-1-3-9(8)10/h1-4,7,12H,5-6H2,(H,13,14)",189.21054,-5.53479571917,-0.33197889761,5.20281682156,5.230908711649534
000003745,CC(Oc1ccc2c(c1)oc(cc2=O)c1ccccc1)C,C18H16O3,"InChI=1S/C18H16O3/c1-12(2)20-14-8-9-15-16(19)11-17(21-18(15)10-14)13-6-4-3-5-7-13/h3-12H,1-2H3",280.31784,-6.11167708223,-1.4911839007400003,4.62049318149,3.9808591472983568
000003747,CC(Oc1ccc2c(c1)occ(c2=O)c1ccccc1)C,C18H16O3,"InChI=1S/C18H16O3/c1-12(2)21-14-8-9-15-17(10-14)20-11-16(18(15)19)13-6-4-3-5-7-13/h3-12H,1-2H3",280.31784,-5.94840877193,-1.3007042053899998,4.64770456654,3.8262375261466715
000003748,CC(NNC(=O)c1ccncc1)C,C9H13N3O,"InChI=1S/C9H13N3O/c1-7(2)11-12-9(13)8-3-5-10-6-4-8/h3-7,11H,1-2H3,(H,12,13)",179.21902,-6.544338104525,-1.1700895571499998,5.374248547375,2.4110102340979394
000003749,CCCCC1=NC2(C(=O)N1Cc1ccc(cc1)c1ccccc1c1n[nH]nn1)CCCC2,C25H28N6O,"InChI=1S/C25H28N6O/c1-2-3-10-22-26-25(15-6-7-16-25)24(32)31(22)17-18-11-13-19(14-12-18)20-8-4-5-9-21(20)23-27-29-30-28-23/h4-5,8-9,11-14H,2-3,6-7,10,15-17H2,1H3,(H,27,28,29,30)",428.52942,-6.1143982207350005,-1.0857342634949996,5.028663957240001,2.5571902354439726
000003751,OCCCC1C(=C(C=O)C)CCC(C1(CO)CCC=C(C=CC1C(=CCC(C1(C)C)C)C)C)(C)O,C31H50O4,"InChI=1S/C31H50O4/c1-22(12-15-27-23(2)13-14-25(4)29(27,5)6)10-8-17-31(21-34)28(11-9-19-32)26(24(3)20-33)16-18-30(31,7)35/h10,12-13,15,20,25,27-28,32,34-35H,8-9,11,14,16-19,21H2,1-7H3",486.7263,-6.010994957545001,-1.428597715125,4.582397242420001,0.903444188088008
000003752,Clc1ccc(c(c1)c1nc(N)nc(n1)N)Cl,C9H7Cl2N5,"InChI=1S/C9H7Cl2N5/c10-4-1-2-6(11)5(3-4)7-14-8(12)16-9(13)15-7/h1-3H,(H4,12,13,14,15,16)",256.09138,-6.4218868718,-0.68572690326,5.73615996854,2.7713880968182716
000003753,OC1C(=O)C(c2ccccc2)C(C(=O)C1c1cn(c2c1cccc2)C)O,C21H19NO4,"InChI=1S/C21H19NO4/c1-22-11-14(13-9-5-6-10-15(13)22)17-20(25)18(23)16(19(24)21(17)26)12-7-3-2-4-8-12/h2-11,16-18,21,23,26H,1H3",349.37986,-5.608266458805001,-1.2381180197750004,4.37014843903,1.7924997191938412
000003754,COc1ccc(cc1)C1C(O)C(=O)C(C(C1=O)O)c1ccccc1,C19H18O5,"InChI=1S/C19H18O5/c1-24-13-9-7-12(8-10-13)15-18(22)16(20)14(17(21)19(15)23)11-5-3-2-4-6-11/h2-10,14-16,19-20,23H,1H3",326.34322,-6.06269658914,-1.3578481139949998,4.704848475145,1.3078074238411403
000003756,ClC1=C(N)C(=O)c2c3C1=NCCc3cn2C,C11H10ClN3O,"InChI=1S/C11H10ClN3O/c1-15-4-5-2-3-14-9-6(5)10(15)11(16)8(13)7(9)12/h4H,2-3,13H2,1H3",235.6696,-5.548401411695,-2.30752545224,3.240875959455,4.0501687118653455
000003757,COC(=O)C12OCC34C2C(OC(=O)C)C(=O)OC4CC2C(C3C(C1O)O)(C)C(O)C(=O)C=C2C,C23H28O11,"InChI=1S/C23H28O11/c1-8-5-11(25)17(27)21(3)10(8)6-12-22-7-32-23(20(30)31-4,18(28)13(26)15(21)22)16(22)14(19(29)34-12)33-9(2)24/h5,10,12-18,26-28H,6-7H2,1-4H3",480.46182,-6.228686037945,-1.4149920226,4.813694015345,5.450097477207999
000003758,CC(Cn1c(=O)n(C)c(=O)c2c1nc[nH]2)C,C10H14N4O2,"InChI=1S/C10H14N4O2/c1-6(2)4-14-8-7(11-5-12-8)9(15)13(3)10(14)16/h5-6H,4H2,1-3H3,(H,11,12)",222.24376,-5.956572187445,-1.0639651554550005,4.89260703199,3.2681163169731278
000003759,Cc1onc(c1)C(=O)NNCc1ccccc1,C12H13N3O2,"InChI=1S/C12H13N3O2/c1-9-7-11(15-17-9)12(16)14-13-8-10-5-3-2-4-6-10/h2-7,13H,8H2,1H3,(H,14,16)",231.25052,-6.128003913260001,-1.3687326680150003,4.759271245245,2.372542522290802
000003760,Clc1ccc(c(c1)Cl)C(Cn1cncc1)OCc1c(Cl)cccc1Cl,C18H14Cl4N2O,"InChI=1S/C18H14Cl4N2O/c19-12-4-5-13(17(22)8-12)18(9-24-7-6-23-11-24)25-10-14-15(20)2-1-3-16(14)21/h1-8,11,18H,9-10H2",416.12856,-5.798746154155,-1.1700895571499998,4.628656597005,4.664660932221119
000003762,CCC(C(c1ccc(c(c1)O)O)O)NC(C)C,C13H21NO3,"InChI=1S/C13H21NO3/c1-4-10(14-8(2)3)13(17)9-5-6-11(15)12(16)7-9/h5-8,10,13-17H,4H2,1-3H3",239.31074,-5.469488395050001,0.1306146482399999,5.600103043290001,3.4098165412672867
000003763,FC(OC(C(F)(F)F)Cl)F,C3H2ClF5O,"InChI=1S/C3H2ClF5O/c4-1(3(7,8)9)10-2(5)6/h1-2H",184.492396,-9.096766022215,-0.3102097895699991,8.786556232645001,2.313218269710189
000003764,COc1ccc2c(c1)occ(c2=O)c1ccc(cc1)O,C16H12O4,"InChI=1S/C16H12O4/c1-19-12-6-7-13-15(8-12)20-9-14(16(13)18)10-2-4-11(17)5-3-10/h2-9,17H,1H3",268.26408,-5.54568027319,-1.3115887594100002,4.23409151378,3.4323957559671063
000003765,OC(=O)C1=CCNCC1,C6H9NO2,"InChI=1S/C6H9NO2/c8-6(9)5-1-3-7-4-2-5/h1,7H,2-4H2,(H,8,9)",127.14116,-6.29671450057,-0.7510342273799999,5.54568027319,4.018033184199205
000003767,NNC(=O)c1ccncc1,C6H7N3O,"InChI=1S/C6H7N3O/c7-9-6(10)5-1-3-8-4-2-5/h1-4H,7H2,(H,9,10)",137.13928,-6.9742779883149995,-1.2680505433300002,5.706227444984999,1.9642246999317567
000003768,OC(=O)C1OC(NNC(=O)c2ccncc2)C(C(C1O)O)O,C12H15N3O7,"InChI=1S/C12H15N3O7/c16-6-7(17)9(12(20)21)22-11(8(6)18)15-14-10(19)5-1-3-13-4-2-5/h1-4,6-9,11,15-18H,(H,14,19)(H,20,21)",313.2634,-6.707606414825,-1.5646546403750001,5.14295177445,6.137207829655519
000003769,O=C(c1ccncc1)NNCS(=O)(=O)O,C7H9N3O4S,"InChI=1S/C7H9N3O4S/c11-7(6-1-3-8-4-2-6)10-9-5-15(12,13)14/h1-4,9H,5H2,(H,10,11)(H,12,13,14)",231.22906,-6.990604819345001,-1.1945798036950004,5.796025015650001,4.2439618552245495
000003772,NC(=O)C1CCNCC1,C6H12N2O,"InChI=1S/C6H12N2O/c7-6(9)5-1-3-8-4-2-5/h5,8H,1-4H2,(H2,7,9)",128.17228,-5.640920120865,0.6040927481100002,6.245012868975,4.186691175799332
000003773,OC(=O)C1CCNCC1,C6H11NO2,"InChI=1S/C6H11NO2/c8-6(9)5-1-3-7-4-2-5/h5,7H,1-4H2,(H,8,9)",129.15704,-6.0790234201699995,0.0897975706649996,6.168820990834999,4.6471987012510025
000003774,CCC1C(=O)OCC1Cc1cccn1C,C12H17NO2,"InChI=1S/C12H17NO2/c1-3-11-9(8-15-12(11)14)7-10-5-4-6-13(10)2/h4-6,9,11H,3,7-8H2,1-2H3",207.26888,-5.444998148505,0.1795951413300001,5.624593289835,2.964072723481831
000003776,CC(O)C,C3H8O,"InChI=1S/C3H8O/c1-3(2)4/h3-4H,1-2H3",60.09502,-7.025979619909999,2.0816709563249995,9.107650576234999,1.5984394237508657
000003777,CCCCCCCC(=O)CCC1C(O)CC(C1CC=CCCCC(=O)OC(C)C)O,C25H44O5,"InChI=1S/C25H44O5/c1-4-5-6-7-10-13-20(26)16-17-22-21(23(27)18-24(22)28)14-11-8-9-12-15-25(29)30-19(2)3/h8,11,19,21-24,27-28H,4-7,9-10,12-18H2,1-3H3",424.61386,-6.484473057415,-0.2068065263800003,6.277666531035,3.10187449230961
000003778,CC(c1c(C)n(n(c1=O)c1ccccc1)C)C,C14H18N2O,"InChI=1S/C14H18N2O/c1-10(2)13-11(3)15(4)16(14(13)17)12-8-6-5-7-9-12/h5-10H,1-4H3",230.30552,-5.55656482721,-0.6694000722300002,4.88716475498,4.325857587741996
000003779,CC(NCC(c1ccc(c(c1)O)O)O)C,C11H17NO3,"InChI=1S/C11H17NO3/c1-7(2)12-6-11(15)8-3-4-9(13)10(14)5-8/h3-5,7,11-15H,6H2,1-2H3",211.25758,-5.5728916582400005,0.05170163159499985,5.624593289835,2.479663964251608
000003780,[O-][N+](=O)OC1COC2C1OCC2O[N+](=O)[O-],C6H8N2O8,"InChI=1S/C6H8N2O8/c9-7(10)15-3-1-13-6-4(16-8(11)12)2-14-5(3)6/h3-6H,1-2H2",236.13632,-7.458640642205,-1.9510563080849996,5.507584334120001,2.6508553712224665
000003781,CN(C(CN1c2ccccc2Sc2c1nccc2)C)C,C16H19N3S,"InChI=1S/C16H19N3S/c1-12(18(2)3)11-19-13-7-4-5-8-14(13)20-15-9-6-10-17-16(15)19/h4-10,12H,11H2,1-3H3",285.40716,-4.80553059983,-0.6503521026949999,4.155178497135,0.7174251476642006
000003783,CC(NC(C(c1ccc(cc1)O)O)C)COc1ccccc1,C18H23NO3,"InChI=1S/C18H23NO3/c1-13(12-22-17-6-4-3-5-7-17)19-14(2)18(21)15-8-10-16(20)11-9-15/h3-11,13-14,18-21H,12H2,1-2H3",301.38012,-5.7606502150850005,-0.16326831030000033,5.597381904785,1.6205479221442358
000003784,COC(=O)C1=C(C)NC(=C(C1c1cccc2c1non2)C(=O)OC(C)C)C,C19H21N3O5,"InChI=1S/C19H21N3O5/c1-9(2)26-19(24)15-11(4)20-10(3)14(18(23)25-5)16(15)12-7-6-8-13-17(12)22-27-21-13/h6-9,16,20H,1-5H3",371.38714,-5.6599680904,-2.25854495915,3.4014231312499996,6.527249282494196
000003785,ONC(=O)CCCn1c(=O)c2cccc3c2c(c1=O)ccc3,C16H14N2O4,"InChI=1S/C16H14N2O4/c19-13(17-22)8-3-9-18-15(20)11-6-1-4-10-5-2-7-12(14(10)11)16(18)21/h1-2,4-7,22H,3,8-9H2,(H,17,19)",298.29336,-6.16609985233,-2.549706779185,3.6163930731450002,6.896622019226949
000003786,ONC(=O)Cc1ccsc1c1ccccc1,C12H11NO2S,"InChI=1S/C12H11NO2S/c14-11(13-15)8-10-6-7-16-12(10)9-4-2-1-3-5-9/h1-7,15H,8H2,(H,13,14)",233.28624,-6.24773400748,-0.9605618922649999,5.287172115215,2.4572930831455575
000003787,ONC(=O)C(CCc1ccccc1)C,C11H15NO2,"InChI=1S/C11H15NO2/c1-9(11(13)12-14)7-8-10-5-3-2-4-6-10/h2-6,9,14H,7-8H2,1H3,(H,12,13)",193.2423,-6.34569499366,-0.15510489478500045,6.190590098874999,2.520913660372366
000003788,ON=C1C2(CCCC=C2)NC(=O)C21CCCCC2,C14H20N2O2,"InChI=1S/C14H20N2O2/c17-12-13(7-3-1-4-8-13)11(16-18)14(15-12)9-5-2-6-10-14/h5,9,18H,1-4,6-8,10H2,(H,15,17)",248.3208,-6.4463771183450005,-0.33470003611499966,6.111677082230001,4.046187420086469
000003789,ONC(=O)C12CC3CC(C2)(CC(C1)(C3)C)C,C13H21NO2,"InChI=1S/C13H21NO2/c1-11-3-9-4-12(2,6-11)8-13(5-9,7-11)10(15)14-16/h9,16H,3-8H2,1-2H3,(H,14,15)",223.31134,-6.171542129340001,0.18775855684499998,6.3593006861850006,2.858611868229928
000003791,COc1ccc(cc1)C(=O)C(c1ccccc1)O,C15H14O3,"InChI=1S/C15H14O3/c1-18-13-9-7-12(8-10-13)15(17)14(16)11-5-3-2-4-6-11/h2-10,14,16H,1H3",242.26986,-6.255897422995,-1.4013863300749998,4.85451109292,4.215329045265743
000003792,COc1cc(ccc1OC)C(=O)NCc1ccc(cc1)OCCN(C)C,C20H26N2O4,"InChI=1S/C20H26N2O4/c1-22(2)11-12-26-17-8-5-15(6-9-17)14-21-20(23)16-7-10-18(24-3)19(13-16)25-4/h5-10,13H,11-12,14H2,1-4H3,(H,21,23)",358.43144,-5.499420918605,-0.1932008338550002,5.30622008475,3.3642584843572885
000003794,COc1cc2c(ncnc2cc1OC)Nc1ccc(cc1)O,C16H15N3O3,"InChI=1S/C16H15N3O3/c1-21-14-7-12-13(8-15(14)22-2)17-9-18-16(12)19-10-3-5-11(20)6-4-10/h3-9,20H,1-2H3,(H,17,18,19)",297.3086,-5.15927860548,-0.9687253077799998,4.1905532977,5.006243857607617
000003797,CC(N(Cc1ccccc1)CCC(=O)c1ccc2c(c1)cccc2)C,C23H25NO,"InChI=1S/C23H25NO/c1-18(2)24(17-19-8-4-3-5-9-19)15-14-23(25)22-13-12-20-10-6-7-11-21(20)16-22/h3-13,16,18H,14-15,17H2,1-2H3",331.4507,-5.54568027319,-1.6326831029999997,3.9129971701900006,3.4238676193175173
000003798,COc1cc2c(ncnc2cc1OC)Nc1ccccc1,C16H15N3O2,"InChI=1S/C16H15N3O2/c1-20-14-8-12-13(9-15(14)21-2)17-10-18-16(12)19-11-6-4-3-5-7-11/h3-10H,1-2H3,(H,17,18,19)",281.3092,-5.3796908243849995,-1.0993399560199997,4.280350868365,3.9837098644424396
000003799,C=CC(=O)c1ccc2c(c1)cccc2,C13H10O,"InChI=1S/C13H10O/c1-2-13(14)12-8-7-10-5-3-4-6-11(10)9-12/h2-9H,1H2",182.2179,-6.11167708223,-1.8095571058250002,4.302119976405,3.0362609986990576
000003802,CN1CCN(CC1)C1=Nc2cccnc2Nc2c1cc(C)cc2,C18H21N5,"InChI=1S/C18H21N5/c1-13-5-6-15-14(12-13)18(23-10-8-22(2)9-11-23)21-16-4-3-7-19-17(16)20-15/h3-7,12H,8-11H2,1-2H3,(H,19,20)",307.39284,-5.077644450329999,-1.216348911735,3.8612955385949994,2.903303523015635
000003803,COc1oc(=O)c2c(c1Cl)ccc(c2)N,C10H8ClNO3,"InChI=1S/C10H8ClNO3/c1-14-10-8(11)6-3-2-5(12)4-7(6)9(13)15-10/h2-4H,12H2,1H3",225.62842,-5.14295177445,-1.5320009783150002,3.610950796135,2.30809503090774
000003806,O=C1C=CC(=O)c2c1c(O)ccc2,C10H6O3,"InChI=1S/C10H6O3/c11-7-4-5-9(13)10-6(7)2-1-3-8(10)12/h1-5,12H",174.15284,-6.50896330396,-3.18917432786,3.3197889761,0.20182276111479597
000003809,ONC(=O)CCCNC(=O)c1ccc(cc1)N(C)C,C13H19N3O3,"InChI=1S/C13H19N3O3/c1-16(2)11-7-5-10(6-8-11)13(18)14-9-3-4-12(17)15-19/h5-8,19H,3-4,9H2,1-2H3,(H,14,18)(H,15,17)",265.30826,-5.330710331295,-0.41905532976999993,4.911655001525,2.628237351156284
000003810,ONC(=O)CCCCNC(=O)c1ccc(cc1)N(C)C,C14H21N3O3,"InChI=1S/C14H21N3O3/c1-17(2)12-8-6-11(7-9-12)14(19)15-10-4-3-5-13(18)16-20/h6-9,20H,3-5,10H2,1-2H3,(H,15,19)(H,16,18)",279.33484,-5.510305472625,-0.5034106234250002,5.0068948492,5.486442849730415
000003811,ONC(=O)CCCCCNC(=O)c1ccc(cc1)N(C)C,C15H23N3O3,"InChI=1S/C15H23N3O3/c1-18(2)13-9-7-12(8-10-13)15(20)16-11-5-3-4-6-14(19)17-21/h7-10,21H,3-6,11H2,1-2H3,(H,16,20)(H,17,19)",293.36142,-5.469488395050001,-0.4272187452849998,5.042269649765001,4.4314543632551375
000003812,ONC(=O)CCCCCCCNC(=O)c1ccc(cc1)N(C)C,C17H27N3O3,"InChI=1S/C17H27N3O3/c1-20(2)15-11-9-14(10-12-15)17(22)18-13-7-5-3-4-6-8-16(21)19-23/h9-12,23H,3-8,13H2,1-2H3,(H,18,22)(H,19,21)",321.41458,-5.390575378405,-0.28571954302500036,5.1048558353799995,3.6344055515927227
000003813,COC(=O)C1(O)CC2OC1(C)n1c3ccccc3c3c1c1n2c2ccccc2c1c1c3CNC1=O,C27H21N3O5,"InChI=1S/C27H21N3O5/c1-26-27(33,25(32)34-2)11-18(35-26)29-16-9-5-3-7-13(16)20-21-15(12-28-24(21)31)19-14-8-4-6-10-17(14)30(26)23(19)22(20)29/h3-10,18,33H,11-12H2,1-2H3,(H,28,31)",467.47274,-5.18648999053,-1.1211090640599997,4.0653809264700005,6.03369636115085
000003814,O=C1NCc2c1c1c3ccccc3n3c1c1c2c2ccccc2n1C1(OC3CC1(O)C(=O)O)C,C26H19N3O5,"InChI=1S/C26H19N3O5/c1-25-26(33,24(31)32)10-17(34-25)28-15-8-4-2-6-12(15)19-20-14(11-27-23(20)30)18-13-7-3-5-9-16(13)29(25)22(18)21(19)28/h2-9,17,33H,10-11H2,1H3,(H,27,30)(H,31,32)",453.44616,-5.227307068105,-1.1347147565849998,4.09259231152,6.996710110018351
000003815,O=C1NCc2c1c1c([nH]c3c1cccc3)c1c2c2ccccc2[nH]1,C20H13N3O,"InChI=1S/C20H13N3O/c24-20-17-12(9-21-20)15-10-5-1-3-7-13(10)22-18(15)19-16(17)11-6-2-4-8-14(11)23-19/h1-8,22-23H,9H2,(H,21,24)",311.33672,-5.25723959166,-1.0639651554550005,4.193274436205,5.569307318218487
000003816,OC(=O)CC1C(CNC1C(=O)O)C(=C)C,C10H15NO4,"InChI=1S/C10H15NO4/c1-5(2)7-4-11-9(10(14)15)6(7)3-8(12)13/h6-7,9,11H,1,3-4H2,2H3,(H,12,13)(H,14,15)",213.2304,-6.582434043595001,-0.6476309641900002,5.934803079405,5.944668683989715
000003818,COc1cc(CCNCC(c2ccc(cc2)O)O)ccc1OC,C18H23NO4,"InChI=1S/C18H23NO4/c1-22-17-8-3-13(11-18(17)23-2)9-10-19-12-16(21)14-4-6-15(20)7-5-14/h3-8,11,16,19-21H,9-10,12H2,1-2H3",317.37952,-5.24635503764,0.1034032631899997,5.34975830083,1.5050941692392539
000003819,OCC12C(O)CCC(C2CC(C23C1CCC(C2O)C(=C)C3=O)O)(C)C,C20H30O5,"InChI=1S/C20H30O5/c1-10-11-4-5-12-19(9-21)13(18(2,3)7-6-14(19)22)8-15(23)20(12,16(10)24)17(11)25/h11-15,17,21-23,25H,1,4-9H2,2-3H3",350.4492,-6.353858409175,-1.6217985489800002,4.732059860195,2.21012058191267
000003821,CNC1(CCCCC1=O)c1ccccc1Cl,C13H16ClNO,"InChI=1S/C13H16ClNO/c1-15-13(9-5-4-8-12(13)16)10-6-2-3-7-11(10)14/h2-3,6-7,15H,4-5,8-9H2,1H3",237.72524,-6.128003913260001,-0.38368052920499984,5.744323384055001,2.996436294616824
000003822,Fc1ccc(cc1)C(=O)C1CCN(CC1)CCn1c(=O)[nH]c2c(c1=O)cccc2,C22H22FN3O3,"InChI=1S/C22H22FN3O3/c23-17-7-5-15(6-8-17)20(27)16-9-11-25(12-10-16)13-14-26-21(28)18-3-1-2-4-19(18)24-22(26)29/h1-8,16H,9-14H2,(H,24,29)",395.4267832,-5.70894858349,-1.4204342996100001,4.28851428388,2.8656355924858974
000003824,CC(=O)CCC1C(=O)N(N(C1=O)c1ccccc1)c1ccccc1,C19H18N2O3,"InChI=1S/C19H18N2O3/c1-14(22)12-13-17-18(23)20(15-8-4-2-5-9-15)21(19(17)24)16-10-6-3-7-11-16/h2-11,17H,12-13H2,1H3",322.35782,-5.839563231730001,-0.9333505072149997,4.906212724515001,2.4765468013009566
000003825,OC(=O)C(c1cccc(c1)C(=O)c1ccccc1)C,C16H14O3,"InChI=1S/C16H14O3/c1-11(16(18)19)13-8-5-9-14(10-13)15(17)12-6-3-2-4-7-12/h2-11H,1H3,(H,18,19)",254.28056,-6.772913738945,-1.8068359673199996,4.966077771625001,2.3622017999239606
000003826,OC(=O)C1CCn2c1ccc2C(=O)c1ccccc1,C15H13NO3,"InChI=1S/C15H13NO3/c17-14(10-4-2-1-3-5-10)13-7-6-12-11(15(18)19)8-9-16(12)13/h1-7,11H,8-9H2,(H,18,19)",255.26862,-6.3021567775800005,-1.5973083024349997,4.704848475145001,4.093913356982045
000003827,CN1CCC(=C2c3ccccc3CC(=O)c3c2ccs3)CC1,C19H19NOS,"InChI=1S/C19H19NOS/c1-20-9-6-13(7-10-20)18-15-5-3-2-4-14(15)12-17(21)19-16(18)8-11-22-19/h2-5,8,11H,6-7,9-10,12H2,1H3",309.42526,-5.624593289835,-1.6979904271199997,3.9266028627150007,4.57217714996379
000003828,COc1c2c(=O)cc(oc2c(c2c1cco2)OC)C,C14H12O5,"InChI=1S/C14H12O5/c1-7-6-9(15)10-11(16-2)8-4-5-18-12(8)14(17-3)13(10)19-7/h4-6H,1-3H3",260.24208,-5.259960730165,-1.1728106956550004,4.08715003451,2.8150210124332995
000003829,OCC1C(O)C(O)C(C2N1C(=O)C(=O)N2)O,C8H12N2O6,"InChI=1S/C8H12N2O6/c11-1-2-3(12)4(13)5(14)6-9-7(15)8(16)10(2)6/h2-6,11-14H,1H2,(H,9,15)",232.19068,-6.75930804642,-1.2326757427650001,5.526632303655,6.346664409722638
000003830,c1coc(c1)CNc1ncnc2c1[nH]cn2,C10H9N5O,"InChI=1S/C10H9N5O/c1-2-7(16-3-1)4-11-9-8-10(13-5-12-8)15-6-14-9/h1-3,5-6H,4H2,(H2,11,12,13,14,15)",215.21136,-6.065417727644999,-0.95239847675,5.113019250894999,7.332426139325714
000003831,OCC1OC(C(C(C1O)O)O)n1cnc2c1ncnc2NCc1ccco1,C16H19N5O6,"InChI=1S/C16H19N5O6/c22-5-9-11(23)12(24)13(25)16(27-9)21-7-20-10-14(18-6-19-15(10)21)17-4-8-2-1-3-26-8/h1-3,6-7,9,11-13,16,22-25H,4-5H2,(H,17,18,19)",377.35196,-5.733438830035,-0.8408317980450004,4.89260703199,1.2391621754730087
000003832,OCC1OC(C(C1O)O)n1cnc2c1ncnc2NCc1ccco1,C15H17N5O5,"InChI=1S/C15H17N5O5/c21-5-9-11(22)12(23)15(25-9)20-7-19-10-13(17-6-18-14(10)20)16-4-8-2-1-3-24-8/h1-3,6-7,9,11-12,15,21-23H,4-5H2,(H,16,17,18)",347.32598,-5.798746154155,-0.9904944158199998,4.8082517383350005,2.0401315561784243
000003836,COc1ccc(cc1)S(=O)(=O)Nc1ccccc1CN(CC=Cc1ccc(cc1)Cl)C,C24H25ClN2O3S,"InChI=1S/C24H25ClN2O3S/c1-27(17-5-6-19-9-11-21(25)12-10-19)18-20-7-3-4-8-24(20)26-31(28,29)23-15-13-22(30-2)14-16-23/h3-16,26H,17-18H2,1-2H3",456.9849,-5.455882702525001,-1.1020610945250002,4.3538216080000005,6.2651313705291924
000003840,OCc1occ(c(=O)c1)O,C6H6O4,"InChI=1S/C6H6O4/c7-2-4-1-5(8)6(9)3-10-4/h1,3,7,9H,2H2",142.10944,-6.375627517215,-1.1020610945250002,5.27356642269,5.025047787918041
000003841,NCc1cc(=O)c(co1)O,C6H7NO3,"InChI=1S/C6H7NO3/c7-2-4-1-5(8)6(9)3-10-4/h1,3,9H,2,7H2",141.12468,-6.212359206915,-0.9251870916999998,5.287172115215,5.8576733352202215
000003843,COC(=O)C1(OC)CC2OC1(C)n1c3ccccc3c3c1c1n2c2ccccc2c1c1c3CN(C1=O)C,C29H25N3O5,"InChI=1S/C29H25N3O5/c1-28-29(36-4,27(34)35-3)13-20(37-28)31-18-11-7-5-9-15(18)22-23-17(14-30(2)26(23)33)21-16-10-6-8-12-19(16)32(28)25(21)24(22)31/h5-12,20H,13-14H2,1-4H3",495.5259,-5.123903804915,-1.0503594629300004,4.0735443419849995,4.103673909202095
000003845,OC(=O)c1cc(=O)c2c([nH]1)cccc2,C10H7NO3,"InChI=1S/C10H7NO3/c12-9-5-8(10(13)14)11-7-4-2-1-3-6(7)9/h1-5H,(H,11,12)(H,13,14)",189.16748,-6.3021567775800005,-2.1823530810099996,4.119803696570001,2.70109586816703
000003846,CCCCc1nc2ccc(cc2c(=O)n1Cc1ccc(cc1)c1ccccc1c1n[nH]nn1)O,C26H24N6O2,"InChI=1S/C26H24N6O2/c1-2-3-8-24-27-23-14-13-19(33)15-22(23)26(34)32(24)16-17-9-11-18(12-10-17)20-6-4-5-7-21(20)25-28-30-31-29-25/h4-7,9-15,33H,2-3,8,16H2,1H3,(H,28,29,30,31)",452.50776,-5.62731442834,-1.1292724795750004,4.498041948765,1.3577782383692119
000003847,NC(C(=O)O)CCCC(=C)C(=O)O,C8H13NO4,"InChI=1S/C8H13NO4/c1-5(7(10)11)3-2-4-6(9)8(12)13/h6H,1-4,9H2,(H,10,11)(H,12,13)",187.19312,-6.66678933725,-0.8381106595399999,5.82867867771,4.63838510289799
000003848,OC(C(=O)O)Cc1ccccc1,C9H10O3,"InChI=1S/C9H10O3/c10-8(9(11)12)6-7-4-2-1-3-5-7/h1-5,8,10H,6H2,(H,11,12)",166.1739,-6.919855218215001,-0.5578333935249997,6.362021824690001,4.102601611605128
000003856,NCCOC=CC(C(=O)O)NCc1c(cnc(c1O)C)COP(=O)(O)O,C14H22N3O8P,"InChI=1S/C14H22N3O8P/c1-9-13(18)11(10(6-16-9)8-25-26(21,22)23)7-17-12(14(19)20)2-4-24-5-3-15/h2,4,6,12,17-18H,3,5,7-8,15H2,1H3,(H,19,20)(H2,21,22,23)",391.313541,-5.89942827884,-0.6585155182099998,5.2409127606300006,6.130443534114722
000003857,OC(=O)C(CP(=O)(O)O)N,C3H8NO5P,"InChI=1S/C3H8NO5P/c4-2(3(5)6)1-10(7,8)9/h2H,1,4H2,(H,5,6)(H2,7,8,9)",169.073081,-6.79196170848,-0.02449024654499965,6.767471461935,1.2448449271334963
000003858,OC(=O)C(Cc1ccccc1)CC(=O)O,C11H12O4,"InChI=1S/C11H12O4/c12-10(13)7-9(11(14)15)6-8-4-2-1-3-5-8/h1-5,9H,6-7H2,(H,12,13)(H,14,15)",208.21058,-6.73753893838,-0.8435529365500001,5.89398600183,5.64303620219736
000003859,CCCCS(=O)(=N)CCC(C(=O)O)(N)C,C9H20N2O3S,"InChI=1S/C9H20N2O3S/c1-3-4-6-15(11,14)7-5-9(2,10)8(12)13/h11H,3-7,10H2,1-2H3,(H,12,13)",236.3317,-5.9701778799700005,-0.01904796953500032,5.951129910435,4.8552171238108395
000003860,SCC(C(=O)NC(C(=O)O)C(C)C)NC(=O)CCCC(C(=O)O)N,C14H25N3O6S,"InChI=1S/C14H25N3O6S/c1-7(2)11(14(22)23)17-12(19)9(6-24)16-10(18)5-3-4-8(15)13(20)21/h7-9,11,24H,3-6,15H2,1-2H3,(H,16,18)(H,17,19)(H,20,21)(H,22,23)",363.4298,-6.479030780405,-0.9714464462850003,5.50758433412,4.9701840191883235
000003861,SCC(CC(C)C)N,C6H15NS,"InChI=1S/C6H15NS/c1-5(2)3-6(7)4-8/h5-6,8H,3-4,7H2,1-2H3",133.255,-6.24229173047,0.8762065986099996,7.1184983290799995,1.3644482969130785