mol_id,SMILES,formula,inchi,mass,HOMO(eV),LUMO(eV),GAP(eV),dipole_moment
000003274,OC(=O)CCC(=O)Oc1ccc2c(c1)CCC1C2CCC2(C1CCC2=O)C,C22H26O5,"InChI=1S/C22H26O5/c1-22-11-10-16-15-5-3-14(27-21(26)9-8-20(24)25)12-13(15)2-4-17(16)18(22)6-7-19(22)23/h3,5,12,16-18H,2,4,6-11H2,1H3,(H,24,25)",370.43884,-6.49263647293,-1.074849709475,5.417786763455,3.9963126039459174
000003275,CCN(CCOc1ccccc1C(=O)CCc1ccccc1)CC,C21H27NO2,"InChI=1S/C21H27NO2/c1-3-22(4-2)16-17-24-21-13-9-8-12-19(21)20(23)15-14-18-10-6-5-7-11-18/h5-13H,3-4,14-17H2,1-2H3",325.44458,-5.896707140335001,-0.3591902826600002,5.5375168576750005,3.0407802452015504
000003276,[O-][N+](=O)c1nccn1CC(=O)NCCO,C7H10N4O4,"InChI=1S/C7H10N4O4/c12-4-2-8-6(13)5-10-3-1-9-7(10)11(14)15/h1,3,12H,2,4-5H2,(H,8,13)",214.1787,-6.9661145728000005,-2.74834989005,4.21776468275,3.359692162161587
000003277,CCOC(=O)c1cnc2c(c1NN=C(C)C)cnn2CC,C14H19N5O2,"InChI=1S/C14H19N5O2/c1-5-19-13-10(8-16-19)12(18-17-9(3)4)11(7-15-13)14(20)21-6-2/h7-8H,5-6H2,1-4H3,(H,15,18)",289.33296,-5.602824181795,-1.2462814352900002,4.356542746505,5.007429891375215
000003278,CCC(=C)C(=O)c1ccc(c(c1Cl)Cl)OCC(=O)O,C13H12Cl2O4,"InChI=1S/C13H12Cl2O4/c1-3-7(2)13(18)8-4-5-9(12(15)11(8)14)19-6-10(16)17/h4-5H,2-3,6H2,1H3,(H,16,17)",303.13798,-6.889922694659999,-1.8939123994799996,4.99601029518,5.15760723402529
000003279,CCC(NCCNC(CO)CC)CO,C10H24N2O2,"InChI=1S/C10H24N2O2/c1-3-9(7-13)11-5-6-12-10(4-2)8-14/h9-14H,3-8H2,1-2H3",204.30976,-6.141609605785001,1.28437737436,7.425986980145001,2.1633952786545967
000003280,CCOc1ccc(cc1OCC)Cc1nccc2c1cc(OCC)c(c2)OCC,C24H29NO4,"InChI=1S/C24H29NO4/c1-5-26-21-10-9-17(14-22(21)27-6-2)13-20-19-16-24(29-8-4)23(28-7-3)15-18(19)11-12-25-20/h9-12,14-16H,5-8,13H2,1-4H3",395.49136,-5.06675989631,-0.8979757066499996,4.16878418966,4.557322702988455
000003281,CCC(C#C)(C=CCl)O,C7H9ClO,"InChI=1S/C7H9ClO/c1-3-7(9,4-2)5-6-8/h1,5-6,9H,4H2,2H3",144.59876,-6.78107715446,-0.25306588096499993,6.528011273495,2.343545206730606
000003282,CCOc1ccccc1C(=O)N,C9H11NO2,"InChI=1S/C9H11NO2/c1-2-12-8-6-4-3-5-7(8)9(10)11/h3-6H,2H2,1H3,(H2,10,11)",165.18914,-6.190590098875,-0.8027358589749998,5.3878542399,5.450337064524084
000003283,CCOCC,C4H10O,"InChI=1S/C4H10O/c1-3-5-4-2/h3-4H2,1-2H3",74.1216,-6.702164137815,2.517053117125,9.21921725494,1.0677429030009986
000003284,C#CC1(CCCCC1)OC(=O)N,C9H13NO2,"InChI=1S/C9H13NO2/c1-2-9(12-8(10)11)6-4-3-5-7-9/h1H,3-7H2,(H2,10,11)",167.20502,-6.941624326255,0.7047748727950003,7.64639919905,2.2298915720962755
000003285,C#CC1(O)CCC2C1(C)CCC1C2CCc2c1ccc(c2)O,C20H24O2,"InChI=1S/C20H24O2/c1-3-20(22)11-9-18-17-6-4-13-12-14(21)5-7-15(13)16(17)8-10-19(18,20)2/h1,5,7,12,16-18,21-22H,4,6,8-11H2,2H3",296.40336,-5.6599680904,0.046259354584999635,5.706227444984999,1.4898384776763554
000003286,CCOP(=S)(OCC)SCSP(=S)(OCC)OCC,C9H22O4P2S4,"InChI=1S/C9H22O4P2S4/c1-5-10-14(16,11-6-2)18-9-19-15(17,12-7-3)13-8-4/h5-9H2,1-4H3",384.476102,-6.32392588562,-0.5088529004350004,5.815072985184999,3.1611610479244807
000003288,C#CC1(O)CCC2C1(C)CCC1C2CCC2=CC(=O)CCC12C,C21H28O2,"InChI=1S/C21H28O2/c1-4-21(23)12-9-18-16-6-5-14-13-15(22)7-10-19(14,2)17(16)8-11-20(18,21)3/h1,13,16-18,23H,5-12H2,2-3H3",312.44582,-6.2586185615000005,-1.1809741111700003,5.07764445033,3.7672583455809083
000003289,CCCSP(=O)(SCCC)OCC,C8H19O2PS2,"InChI=1S/C8H19O2PS2/c1-4-7-12-11(9,10-6-3)13-8-5-2/h4-8H2,1-3H3",242.339021,-6.794682846985,-0.1251723712299997,6.6695104757550006,2.0440303753887807
000003290,CCN(C(CN1c2ccccc2Sc2c1cccc2)C)CC,C19H24N2S,"InChI=1S/C19H24N2S/c1-4-20(5-2)15(3)14-21-16-10-6-8-12-18(16)22-19-13-9-7-11-17(19)21/h6-13,15H,4-5,14H2,1-3H3",312.47226,-4.628656597005,-0.42449760678000015,4.204158990225,2.2118097892226176
000003291,CC1(CC)CC(=O)NC1=O,C7H11NO2,"InChI=1S/C7H11NO2/c1-3-7(2)4-5(9)8-6(7)10/h3-4H2,1-2H3,(H,8,9,10)",141.16774,-6.941624326255,-0.497968346415,6.44365597984,2.2798934437017007
000003292,CCN1C(=O)NC(C1=O)c1ccccc1,C11H12N2O2,"InChI=1S/C11H12N2O2/c1-2-13-10(14)9(12-11(13)15)8-6-4-3-5-7-8/h3-7,9H,2H2,1H3,(H,12,15)",204.22518,-6.77563487745,-0.5904870555850001,6.185147821865,2.438402604254064
000003293,CCOc1ccc2c(c1)C(=CC(N2)(C)C)C,C14H19NO,"InChI=1S/C14H19NO/c1-5-16-11-6-7-13-12(8-11)10(2)9-14(3,4)15-13/h6-9,15H,5H2,1-4H3",217.30676,-4.43001348614,-0.4489878533249998,3.981025632815,1.2706691530669973
000003294,CCOc1ccc2c(c1)oc1c(n2)ccc(=O)c1,C14H11NO3,"InChI=1S/C14H11NO3/c1-2-17-10-4-6-12-14(8-10)18-13-7-9(16)3-5-11(13)15-12/h3-8H,2H2,1H3",241.24204,-5.7905827386399995,-2.707532812475,3.0830499261649993,6.2717819103388
000003295,CCOc1ccc2c(c1)sc(n2)S(=O)(=O)N,C9H10N2O3S2,"InChI=1S/C9H10N2O3S2/c1-2-14-6-3-4-7-8(5-6)15-9(11-7)16(10,12)13/h3-5H,2H2,1H3,(H2,10,12,13)",258.3173,-6.130725051765,-1.695269288615,4.43545576315,6.328490150122382
000003296,CCOC(=O)c1[nH]c(c(c1CC(=O)OC)C(=O)OC(C)(C)C)C,C16H23NO6,"InChI=1S/C16H23NO6/c1-7-22-15(20)13-10(8-11(18)21-6)12(9(2)17-13)14(19)23-16(3,4)5/h17H,7-8H2,1-6H3",325.35692,-6.076302281665,-0.9170236761849999,5.15927860548,1.889162483064387
000003297,CCOC(=O)C(CS)N,C5H11NO2S,"InChI=1S/C5H11NO2S/c1-2-8-5(7)4(6)3-9/h4,9H,2-3,6H2,1H3",149.21134,-6.261339700005,-0.05714390860500007,6.2041957914,2.6836105479659302
000003298,CCC=CCC=CCC=CCC=CCC=CCCCC(=O)OCC,C22H34O2,"InChI=1S/C22H34O2/c1-3-5-6-7-8-9-10-11-12-13-14-15-16-17-18-19-20-21-22(23)24-4-2/h5-6,8-9,11-12,14-15,17-18H,3-4,7,10,13,16,19-21H2,1-2H3",330.50416,-6.08446569718,0.17415286431999988,6.2586185615,1.1202342660617912
000003299,CCOC(=O)C1N=C(c2c(NC1=O)ccc(c2)Cl)c1ccccc1F,C18H14ClFN2O3,"InChI=1S/C18H14ClFN2O3/c1-2-25-18(24)16-17(23)21-14-8-7-10(19)9-12(14)15(22-16)11-5-3-4-6-13(11)20/h3-9,16H,2H2,1H3,(H,21,23)",360.7667632,-6.359300686185,-1.760576612735,4.59872407345,3.045756765295942
000003300,CCOC(=O)c1ccc(cc1)NC(=O)CN1CCCCC1,C16H22N2O3,"InChI=1S/C16H22N2O3/c1-2-21-16(20)13-6-8-14(9-7-13)17-15(19)12-18-10-4-3-5-11-18/h6-9H,2-5,10-12H2,1H3,(H,17,19)",290.35748,-5.997389265020001,-1.0884554020000001,4.908933863020001,4.588190245795067
000003301,NCCN,C2H8N2,InChI=1S/C2H8N2/c3-1-2-4/h1-4H2,60.09832,-6.163378713825001,1.8013936903100003,7.964772404135001,0.566883634090807
000003302,CCC1(O)CCC2C1(C)CCC1C2CCC2=CCCCC12,C20H32O,"InChI=1S/C20H32O/c1-3-20(21)13-11-18-17-9-8-14-6-4-5-7-15(14)16(17)10-12-19(18,20)2/h6,15-18,21H,3-5,7-13H2,1-2H3",288.46748,-6.04636975811,0.7782456124300001,6.82461537054,1.5386631600376348
000003303,CCOc1ccc2c3c1OC1C43CCN(C(C2)C4C=CC1O)C,C19H23NO3,"InChI=1S/C19H23NO3/c1-3-22-15-7-4-11-10-13-12-5-6-14(21)18-19(12,8-9-20(13)2)16(11)17(15)23-18/h4-7,12-14,18,21H,3,8-10H2,1-2H3",313.39082,-5.064038757805,-1.09389767901,3.9701410787950002,3.670646536853556
000003304,C#CC1(CCC2C1(C)CCC1C2CCC2=CC(CCC12)OC(=O)C)OC(=O)C,C24H32O4,"InChI=1S/C24H32O4/c1-5-24(28-16(3)26)13-11-22-21-8-6-17-14-18(27-15(2)25)7-9-19(17)20(21)10-12-23(22,24)4/h1,14,18-22H,6-13H2,2-4H3",384.50848,-6.386512071235,0.21496994189500018,6.60148201313,1.5919062395047017
000003305,CC(P(=O)(O)O)(P(=O)(O)O)O,C2H8O7P2,"InChI=1S/C2H8O7P2/c1-2(3,10(4,5)6)11(7,8)9/h3H,1H3,(H2,4,5,6)(H2,7,8,9)",206.028242,-7.850484586925,0.016326831029999767,7.866811417955,4.253907561825715
000003306,CCNCC(c1cccc(c1)O)O,C10H15NO2,"InChI=1S/C10H15NO2/c1-2-11-7-10(13)8-4-3-5-9(12)6-8/h3-6,10-13H,2,7H2,1H3",181.2316,-5.722554276015,0.11973009422000036,5.842284370235,2.2177327714010087
000003307,CCc1cc2c(s1)n1c(CN=C2c2ccccc2Cl)nnc1C,C17H15ClN4S,"InChI=1S/C17H15ClN4S/c1-3-11-8-13-16(12-6-4-5-7-14(12)18)19-9-15-21-20-10(2)22(15)17(13)23-11/h4-8H,3,9H2,1-2H3",342.8458,-6.21508034542,-1.65989448805,4.55518585737,7.194389969010576
000003308,CCC1(OCCc2c1[nH]c1c2cccc1CC)CC(=O)O,C17H21NO3,"InChI=1S/C17H21NO3/c1-3-11-6-5-7-12-13-8-9-21-17(4-2,10-14(19)20)16(13)18-15(11)12/h5-7,18H,3-4,8-10H2,1-2H3,(H,19,20)",287.35354,-5.52391116515,-0.4217764682749996,5.102134696875001,2.863230530368451
000003309,CCN1C(=O)c2c(C1Nc1ccc(cc1)OCCN1CCCCC1)cccc2,C23H29N3O2,"InChI=1S/C23H29N3O2/c1-2-26-22(20-8-4-5-9-21(20)23(26)27)24-18-10-12-19(13-11-18)28-17-16-25-14-6-3-7-15-25/h4-5,8-13,22,24H,2-3,6-7,14-17H2,1H3",379.49526,-5.07220217332,-0.9279082302050004,4.144293943115,4.995631350485943
000003311,CCSC(=Nc1ccc(cc1)C(F)(F)F)N,C10H11F3N2S,"InChI=1S/C10H11F3N2S/c1-2-16-9(14)15-8-5-3-7(4-6-8)10(11,12)13/h3-6H,2H2,1H3,(H2,14,15)",248.2679496,-6.13888846728,-0.9279082302050004,5.210980237075,5.738348388695567
000003312,CCOC(=O)C=C(C=CC=C(C=Cc1c(C)cc(c(c1C)C)OC)C)C,C23H30O3,"InChI=1S/C23H30O3/c1-8-26-23(24)14-17(3)11-9-10-16(2)12-13-21-18(4)15-22(25-7)20(6)19(21)5/h9-15H,8H2,1-7H3",354.4825,-5.40418107093,-1.749692058715,3.654489012215,2.9271610540255555
000003313,OC(c1ccccc1)C(=O)OC1CCC(N(C1C)C)(C)C,C17H25NO3,"InChI=1S/C17H25NO3/c1-12-14(10-11-17(2,3)18(12)4)21-16(20)15(19)13-8-6-5-7-9-13/h5-9,12,14-15,19H,10-11H2,1-4H3",291.3853,-5.537516857675,-0.5251797314650002,5.012337126209999,2.398913053553421
000003314,C=CCc1ccc(c(c1)OC)O,C10H12O2,"InChI=1S/C10H12O2/c1-3-4-8-5-6-9(11)10(7-8)12-2/h3,5-7,11H,1,4H2,2H3",164.20108,-5.3796908243849995,0.17415286431999988,5.553843688704999,2.585441585617629
000003316,CCCCCCOc1ccccc1C(=O)N,C13H19NO2,"InChI=1S/C13H19NO2/c1-2-3-4-7-10-16-12-9-6-5-8-11(12)13(14)15/h5-6,8-9H,2-4,7,10H2,1H3,(H2,14,15)",221.29546,-6.147051882795,-0.764639919905,5.38241196289,5.677528590675084
000003317,CCCCC=CC=CCC(=O)OC12CC(C)C3(C(C1C2(C)C)C=C(CO)CC1(C3C=C(C1=O)C)O)O,C30H42O6,"InChI=1S/C30H42O6/c1-6-7-8-9-10-11-12-13-24(32)36-29-16-20(3)30(35)22(25(29)27(29,4)5)15-21(18-31)17-28(34)23(30)14-19(2)26(28)33/h9-12,14-15,20,22-23,25,31,34-35H,6-8,13,16-18H2,1-5H3",498.65088,-5.58921848927,-1.3007042053899998,4.2885142838800006,3.849186758231666
000003318,CCCCCC=CCC=CCC=CCC=CCCC(C(=O)NCCF)C,C23H38FNO,"InChI=1S/C23H38FNO/c1-3-4-5-6-7-8-9-10-11-12-13-14-15-16-17-18-19-22(2)23(26)25-21-20-24/h7-8,10-11,13-14,16-17,22H,3-6,9,12,15,18-21H2,1-2H3,(H,25,26)",363.5523232,-6.190590098875,0.22313335741000007,6.413723456285,2.0656778885184397
000003321,CCCCCCCC=CC(C#CC#CC(C=C)O)O,C17H24O2,"InChI=1S/C17H24O2/c1-3-5-6-7-8-9-10-14-17(19)15-12-11-13-16(18)4-2/h4,10,14,16-19H,2-3,5-9H2,1H3",260.37126,-6.5252901349900005,-0.7020537342899997,5.823236400700001,1.185047507620686
000003322,CCCCCCCC=CCC#CC#CC(C=C)O,C17H24O,"InChI=1S/C17H24O/c1-3-5-6-7-8-9-10-11-12-13-14-15-16-17(18)4-2/h4,10-11,17-18H,2-3,5-9,12H2,1H3",244.37186,-6.337531578145,-0.4625935458499999,5.874938032295,2.566970105468897
000003324,CC(=O)OCC(CCn1cnc2c1nc(N)nc2)COC(=O)C,C14H19N5O4,"InChI=1S/C14H19N5O4/c1-9(20)22-6-11(7-23-10(2)21)3-4-19-8-17-12-5-16-14(15)18-13(12)19/h5,8,11H,3-4,6-7H2,1-2H3,(H2,15,16,18)",321.33176,-5.586497350765001,-0.8598797675799998,4.726617583185001,2.031764170615035
000003325,NC(=Nc1scc(n1)CSCCC(=NS(=O)(=O)N)N)N,C8H15N7O2S3,"InChI=1S/C8H15N7O2S3/c9-6(15-20(12,16)17)1-2-18-3-5-4-19-8(13-5)14-7(10)11/h4H,1-3H2,(H2,9,15)(H2,12,16,17)(H4,10,11,13,14)",337.4454,-5.03410623425,-0.541506562495,4.492599671755,4.361493942912337
000003326,CC(N(Cc1c(C(C)C)c(=O)n(n1C)c1ccccc1)C)Cc1ccccc1,C24H31N3O,"InChI=1S/C24H31N3O/c1-18(2)23-22(17-25(4)19(3)16-20-12-8-6-9-13-20)26(5)27(24(23)28)21-14-10-7-11-15-21/h6-15,18-19H,16-17H2,1-5H3",377.52244,-5.4286713174750005,-0.6830057647550003,4.74566555272,5.092163477247072
000003327,OCC=C(CCC=C(CCC=C(C)C)C)C,C15H26O,"InChI=1S/C15H26O/c1-13(2)7-5-8-14(3)9-6-10-15(4)11-12-16/h7,9,11,16H,5-6,8,10,12H2,1-4H3",222.36634,-6.005552680535001,0.4680358228600001,6.473588503395001,2.254735745768448
000003328,OC(=O)CSCC=C(CCC=C(CCC=C(C)C)C)C,C17H28O2S,"InChI=1S/C17H28O2S/c1-14(2)7-5-8-15(3)9-6-10-16(4)11-12-20-13-17(18)19/h7,9,11H,5-6,8,10,12-13H2,1-4H3,(H,18,19)",296.46802,-5.624593289835,-0.3782382521949996,5.246355037640001,3.433874748716383
000003329,CC(C1C(=O)N2C1SC(=C2C(=O)O)C1CCCO1)O,C12H15NO5S,"InChI=1S/C12H15NO5S/c1-5(14)7-10(15)13-8(12(16)17)9(19-11(7)13)6-3-2-4-18-6/h5-7,11,14H,2-4H2,1H3,(H,16,17)",285.3162,-5.8259575392050005,-1.2326757427650001,4.59328179644,5.737379192993522
000003330,N#CC(=NNc1ccc(cc1)OC(F)(F)F)C#N,C10H5F3N4O,"InChI=1S/C10H5F3N4O/c11-10(12,13)18-9-3-1-7(2-4-9)16-17-8(5-14)6-15/h1-4,16H",254.1681096,-6.530732412,-2.827262906695,3.7034695053049997,5.075955999103617
000003331,NC(=O)OCC(c1ccccc1)COC(=O)N,C11H14N2O4,"InChI=1S/C11H14N2O4/c12-10(14)16-6-9(7-17-11(13)15)8-4-2-1-3-5-8/h1-5,9H,6-7H2,(H2,12,14)(H2,13,15)",238.23986,-6.370185240205,0.09523984767499982,6.46542508788,2.2562109245832933
000003332,OC(=O)Cc1ccc(cc1)c1ccccc1,C14H12O2,"InChI=1S/C14H12O2/c15-14(16)10-11-6-8-13(9-7-11)12-4-2-1-3-5-12/h1-9H,10H2,(H,15,16)",212.24388,-6.4763096418999995,-0.8925334296400003,5.583776212259999,5.082799649138357
000003333,CCOC(=O)C1=C(C)NC(=C(C1c1cccc(c1Cl)Cl)C(=O)OC)C,C18H19Cl2NO4,"InChI=1S/C18H19Cl2NO4/c1-5-25-18(23)14-10(3)21-9(2)13(17(22)24-4)15(14)11-7-6-8-12(19)16(11)20/h6-8,15,21H,5H2,1-4H3",384.25376,-5.64364125937,-1.4449245461549998,4.198716713215,3.072178439436583
000003334,COC(=O)Nc1nc2c([nH]1)cc(cc2)Sc1ccccc1,C15H13N3O2S,"InChI=1S/C15H13N3O2S/c1-20-15(19)18-14-16-12-8-7-11(9-13(12)17-14)21-10-5-3-2-4-6-10/h2-9H,1H3,(H2,16,17,18,19)",299.34762,-5.025942818735,-0.5986504711,4.427292347635,4.9418424457689865
000003335,O=C(c1ccc(cc1)c1ccccc1)CCC(=O)O,C16H14O3,"InChI=1S/C16H14O3/c17-15(10-11-16(18)19)14-8-6-13(7-9-14)12-4-2-1-3-5-12/h1-9H,10-11H2,(H,18,19)",254.28056,-6.544338104525,-1.70343270413,4.840905400395,3.3825878994252316
000003336,CC(c1ccccc1)NCCC(c1ccccc1)c1ccccc1,C23H25N,"InChI=1S/C23H25N/c1-19(20-11-5-2-6-12-20)24-18-17-23(21-13-7-3-8-14-21)22-15-9-4-10-16-22/h2-16,19,23-24H,17-18H2,1H3",315.4513,-5.75792907658,-0.12789350973500024,5.630035566845,0.7859948885266367
000003337,CCNC(Cc1cccc(c1)C(F)(F)F)C,C12H16F3N,"InChI=1S/C12H16F3N/c1-3-16-9(2)7-10-5-4-6-11(8-10)12(13,14)15/h4-6,8-9,16H,3,7H2,1-2H3",231.2573496,-6.032764065585001,-0.90886026067,5.123903804915001,3.3192627603678804
000003338,CCCCC(c1ccccc1)O,C11H16O,"InChI=1S/C11H16O/c1-2-3-9-11(12)10-7-5-4-6-8-10/h4-8,11-12H,2-3,9H2,1H3",164.24414,-6.62325112117,-0.17415286431999988,6.44909825685,1.6814444089041423
000003339,CC(OC(=O)C(Oc1ccc(cc1)C(=O)c1ccc(cc1)Cl)(C)C)C,C20H21ClO4,"InChI=1S/C20H21ClO4/c1-13(2)24-19(23)20(3,4)25-17-11-7-15(8-12-17)18(22)14-5-9-16(21)10-6-14/h5-13H,1-4H3",360.83134,-6.147051882795,-1.4666936541950006,4.680358228599999,5.566231898536477
000003341,Oc1ccc(cc1)C1CNCCc2c1cc(O)c(c2Cl)O,C16H16ClNO3,"InChI=1S/C16H16ClNO3/c17-15-11-5-6-18-8-13(9-1-3-10(19)4-2-9)12(11)7-14(20)16(15)21/h1-4,7,13,18-21H,5-6,8H2",305.75614,-5.464046118040001,-0.09796098618000038,5.36608513186,4.083645372505429
000003342,OC(=O)C(c1cccc(c1)Oc1ccccc1)C,C15H14O3,"InChI=1S/C15H14O3/c1-11(15(16)17)12-6-5-9-14(10-12)18-13-7-3-2-4-8-13/h2-11H,1H3,(H,16,17)",242.26986,-6.168820990835,-0.64218868718,5.526632303655,4.339083696672029
000003343,CC(Cc1ccc(cc1)O)NCC(c1cc(O)cc(c1)O)O,C17H21NO4,"InChI=1S/C17H21NO4/c1-11(6-12-2-4-14(19)5-3-12)18-10-17(22)13-7-15(20)9-16(21)8-13/h2-5,7-9,11,17-22H,6,10H2,1H3",303.35294,-5.406902209435,-0.22313335741000007,5.183768852025,2.1845515428323043
000003344,O=C1NCC2(O1)CCN(CC2)CCc1ccccc1,C15H20N2O2,"InChI=1S/C15H20N2O2/c18-14-16-12-15(19-14)7-10-17(11-8-15)9-6-13-4-2-1-3-5-13/h1-5H,6-12H2,(H,16,18)",260.3315,-5.75792907658,-0.013605692525000102,5.744323384055,5.219747850535311
000003345,CCC(=O)N(c1ccccc1)C1CCN(CC1)CCc1ccccc1,C22H28N2O,"InChI=1S/C22H28N2O/c1-2-22(25)24(20-11-7-4-8-12-20)21-14-17-23(18-15-21)16-13-19-9-5-3-6-10-19/h3-12,21H,2,13-18H2,1H3",336.47052,-5.210980237075,-0.45987240734500023,4.75110782973,4.6115821681880504
000003346,CSc1ccc(cc1C)OP(=S)(OC)OC,C10H15O3PS2,"InChI=1S/C10H15O3PS2/c1-8-7-9(5-6-10(8)16-4)13-14(15,11-2)12-3/h5-7H,1-4H3",278.328061,-6.07358114316,-0.5632756705349999,5.510305472625,2.0818788729265685
000003347,N#CC(c1cccc(c1)Oc1ccccc1)OC(=O)C(c1ccc(cc1)Cl)C(C)C,C25H22ClNO3,"InChI=1S/C25H22ClNO3/c1-17(2)24(18-11-13-20(26)14-12-18)25(28)30-23(16-27)19-7-6-10-22(15-19)29-21-8-4-3-5-9-21/h3-15,17,23-24H,1-2H3",419.90008,-6.2803876695400005,-1.0340326318999997,5.246355037640001,5.166102538094749
000003349,O=C1NC(=O)C2(N1)CC(Oc1c2cc(F)cc1)C(=O)N,C12H10FN3O4,"InChI=1S/C12H10FN3O4/c13-5-1-2-7-6(3-5)12(4-8(20-7)9(14)17)10(18)15-11(19)16-12/h1-3,8H,4H2,(H2,14,17)(H2,15,16,18,19)",279.2239032,-6.196032375885,-1.0231480778800002,5.172884298005,3.34249059990391
000003350,O=C1C=CC2(C(N1)CCC1C2CCC2(C1CCC2C(=O)NC(C)(C)C)C)C,C23H36N2O2,"InChI=1S/C23H36N2O2/c1-21(2,3)25-20(27)17-8-7-15-14-6-9-18-23(5,13-11-19(26)24-18)16(14)10-12-22(15,17)4/h11,13-18H,6-10,12H2,1-5H3,(H,24,26)(H,25,27)",372.54414,-5.21914365259,-1.6027505794449999,3.616393073145,6.976811433499547
000003351,Clc1ccc(cc1)OCC(=O)N1CCN(CC1)Cc1ccc2c(c1)OCO2,C20H21ClN2O4,"InChI=1S/C20H21ClN2O4/c21-16-2-4-17(5-3-16)25-13-20(24)23-9-7-22(8-10-23)12-15-1-6-18-19(11-15)27-14-26-18/h1-6,11H,7-10,12-14H2",388.84474,-5.54023799618,-0.541506562495,4.998731433685,2.87290060063675
000003352,N#Cc1nn(c(c1S(=O)C(F)(F)F)N)c1c(Cl)cc(cc1Cl)C(F)(F)F,C12H4Cl2F6N4OS,"InChI=1S/C12H4Cl2F6N4OS/c13-5-1-4(11(15,16)17)2-6(14)8(5)24-10(22)9(7(3-21)23-24)26(25)12(18,19)20/h1-2H,22H2",437.1477792,-6.62325112117,-2.37283277636,4.25041834481,5.479867266188205
000003354,O=C(c1cccc2c1oc(c1ccccc1)c(c2=O)C)OCCN1CCCCC1,C24H25NO4,"InChI=1S/C24H25NO4/c1-17-21(26)19-11-8-12-20(23(19)29-22(17)18-9-4-2-5-10-18)24(27)28-16-15-25-13-6-3-7-14-25/h2,4-5,8-12H,3,6-7,13-16H2,1H3",391.4596,-5.8259575392050005,-1.580981471405,4.244976067800001,4.230899320625935
000003356,O=C(c1cc(OCC(F)(F)F)ccc1OCC(F)(F)F)NCC1CCCCN1,C17H20F6N2O3,"InChI=1S/C17H20F6N2O3/c18-16(19,20)9-27-12-4-5-14(28-10-17(21,22)23)13(7-12)15(26)25-8-11-3-1-2-6-24-11/h4-5,7,11,24H,1-3,6,8-10H2,(H,25,26)",414.3427192,-6.2041957914,-1.0231480778800002,5.18104771352,3.470288034653608
000003357,FCCn1cc(C(=O)O)c(=O)c2c1c(F)c(N1CCN(CC1)C)c(c2)F,C17H18F3N3O3,"InChI=1S/C17H18F3N3O3/c1-21-4-6-22(7-5-21)15-12(19)8-10-14(13(15)20)23(3-2-18)9-11(16(10)24)17(25)26/h8-9H,2-7H2,1H3,(H,25,26)",369.3383296,-5.695342890965001,-1.782345720775,3.9129971701900006,9.807767706167088
000003360,OCC(COC(=O)c1ccccc1Nc1ccnc2c1cccc2C(F)(F)F)O,C20H17F3N2O4,"InChI=1S/C20H17F3N2O4/c21-20(22,23)15-6-3-5-13-17(8-9-24-18(13)15)25-16-7-2-1-4-14(16)19(28)29-11-12(27)10-26/h1-9,12,26-27H,10-11H2,(H,24,25)",406.3551896,-5.820515262195,-1.9047969535,3.9157183086950003,8.326620150110488
000003361,OCCn1nnnc1SCC1=C(C(=O)O)N2C(OC1)C(C2=O)(OC)NC(=O)CSCF,C15H19FN6O7S2,"InChI=1S/C15H19FN6O7S2/c1-28-15(17-9(24)6-30-7-16)12(27)22-10(11(25)26)8(4-29-13(15)22)5-31-14-18-19-20-21(14)2-3-23/h13,23H,2-7H2,1H3,(H,17,24)(H,25,26)",478.4757632,-6.288551085055,-2.1306514494149997,4.157899635640001,3.5059150331773585
000003362,CCC(=O)c1c(O)cc(cc1O)O,C9H10O4,"InChI=1S/C9H10O4/c1-2-6(11)9-7(12)3-5(10)4-8(9)13/h3-4,10,12-13H,2H2,1H3",182.1733,-5.902149417345,-1.0993399560199997,4.802809461325,3.4005750581467833
000003363,OCC1OC(CC1O)n1cc(F)c(=O)[nH]c1=O,C9H11FN2O5,"InChI=1S/C9H11FN2O5/c10-4-2-12(9(16)11-8(4)15)7-1-5(14)6(3-13)17-7/h2,5-7,13-14H,1,3H2,(H,11,15,16)",246.1924432,-6.19875351439,-1.0421960474149996,5.156557466975,5.778111453319501
000003364,O=C1C(NC(=O)c2c(C)onc2c2c(F)cccc2Cl)C2N1C(C(=O)O)C(S2)(C)C,C19H17ClFN3O5S,"InChI=1S/C19H17ClFN3O5S/c1-7-10(12(23-29-7)11-8(20)5-4-6-9(11)21)15(25)22-13-16(26)24-14(18(27)28)19(2,3)30-17(13)24/h4-6,13-14,17H,1-3H3,(H,22,25)(H,27,28)",453.8717832,-6.68855844529,-1.4775782082150002,5.210980237075,5.058344941539278
000003365,Fc1ccc(c(c1)F)C(Cn1cncn1)(Cn1cncn1)O,C13H12F2N6O,"InChI=1S/C13H12F2N6O/c14-10-1-2-11(12(15)3-10)13(22,4-20-8-16-6-18-20)5-21-9-17-7-19-21/h1-3,6-9,22H,4-5H2",306.2707864,-6.86271130961,-0.7129382883100002,6.1497730213,1.4941953414092148
000003366,Nc1c(F)cnc(=O)[nH]1,C4H4FN3O,"InChI=1S/C4H4FN3O/c5-2-1-7-4(9)8-3(2)6/h1H,(H3,6,7,8,9)",129.0924632,-5.80690956967,-1.341521282965,4.465388286705,6.99705705939926
000003367,OCC1OC(C(C1O)O)n1cnc2c1nc(F)nc2N,C10H12FN5O4,"InChI=1S/C10H12FN5O4/c11-10-14-7(12)4-8(15-10)16(2-13-4)9-6(19)5(18)3(1-17)20-9/h2-3,5-6,9,17-19H,1H2,(H2,12,14,15)",285.2317832,-6.081744558675,-0.851716352065,5.23002820661,3.664613566306958