mol_id,SMILES,formula,inchi,mass,HOMO(eV),LUMO(eV),GAP(eV),dipole_moment
000002088,NCCCC(P(=O)(O)O)(P(=O)(O)O)O,C4H13NO7P2,"InChI=1S/C4H13NO7P2/c5-3-1-2-4(6,13(7,8)9)14(10,11)12/h6H,1-3,5H2,(H2,7,8,9)(H2,10,11,12)",249.096042,-6.61780884416,-0.04353821607999997,6.57427062808,6.357709505158992
000002091,CC(CCCC(C1CCC2C1(C)CCCC2=CC=C1CC(O)CC(C1=C)O)C)C,C27H44O2,"InChI=1S/C27H44O2/c1-18(2)8-6-9-19(3)24-13-14-25-21(10-7-15-27(24,25)5)11-12-22-16-23(28)17-26(29)20(22)4/h11-12,18-19,23-26,28-29H,4,6-10,13-17H2,1-3,5H3",400.63706,-5.4286713174750005,-0.742870811865,4.6858005056100005,2.3797262235437926
000002092,COc1cc2nc(nc(c2cc1OC)N)N(CCCNC(=O)C1CCCO1)C,C19H27N5O4,"InChI=1S/C19H27N5O4/c1-24(8-5-7-21-18(25)14-6-4-9-28-14)19-22-13-11-16(27-3)15(26-2)10-12(13)17(20)23-19/h10-11,14H,4-9H2,1-3H3,(H,21,25)(H2,20,22,23)",389.44878,-4.84906881591,-0.6503521026949999,4.198716713215,4.277035942801744
000002093,CC=C(C=CC=C(C=CC1=C(C)CCCC1(C)C)C)C,C20H30,"InChI=1S/C20H30/c1-7-16(2)10-8-11-17(3)13-14-19-18(4)12-9-15-20(19,5)6/h7-8,10-11,13-14H,9,12,15H2,1-6H3",270.4522,-5.129346081925,-0.9578407537600002,4.171505328165,0.4365874625375768
000002094,O=c1ncnc2c1c[nH][nH]2,C5H4N4O,"InChI=1S/C5H4N4O/c10-5-3-1-8-9-4(3)6-2-7-5/h1-2H,(H2,6,7,8,9,10)",136.11146,-6.337531578145,-2.35650594533,3.9810256328149998,7.7771511636487425
000002095,OCC1C(O)C(C2C1OC(=N2)N(C)C)O,C9H16N2O4,"InChI=1S/C9H16N2O4/c1-11(2)9-10-5-7(14)6(13)4(3-12)8(5)15-9/h4-8,12-14H,3H2,1-2H3",216.23434,-6.0790234201699995,0.5741602245550004,6.653183644725,2.8726245072241863
000002096,C=CCC1(O)CCC2C1(C)CCC1C2CCC2=CCCCC12,C21H32O,"InChI=1S/C21H32O/c1-3-12-21(22)14-11-19-18-9-8-15-6-4-5-7-16(15)17(18)10-13-20(19,21)2/h3,6,16-19,22H,1,4-5,7-14H2,2H3",300.47818,-6.021879511565,0.3918439447199997,6.413723456285,1.1614227710566898
000002097,CC(=C)CNc1ccc(cc1)C(C(=O)O)C,C13H17NO2,"InChI=1S/C13H17NO2/c1-9(2)8-14-12-6-4-11(5-7-12)10(3)13(15)16/h4-7,10,14H,1,8H2,2-3H3,(H,15,16)",219.27958,-5.53479571917,-0.3238154820950001,5.210980237075,6.350398424756827
000002098,OCc1cc(O)c2c(c1)C(OC1OC(CO)C(C(C1O)O)O)c1c(C2=O)c(O)ccc1,C21H22O10,"InChI=1S/C21H22O10/c22-6-8-4-10-15(12(25)5-8)17(27)14-9(2-1-3-11(14)24)20(10)31-21-19(29)18(28)16(26)13(7-23)30-21/h1-5,13,16,18-26,28-29H,6-7H2",434.39338,-6.21508034542,-2.33473683729,3.8803435081299997,4.424945618568775
000002099,O=C1N(CCc2c1c1ccccc1n2C)Cc1nc[nH]c1C,C17H18N4O,"InChI=1S/C17H18N4O/c1-11-13(19-10-18-11)9-21-8-7-15-16(17(21)22)12-5-3-4-6-14(12)20(15)2/h3-6,10H,7-9H2,1-2H3,(H,18,19)",294.35102,-5.325268054285001,-0.5251797314650002,4.800088322820001,4.184217483651632
000002101,N#CC(=Cc1cccc(c1)O)C(=O)O,C10H7NO3,"InChI=1S/C10H7NO3/c11-6-8(10(13)14)4-7-2-1-3-9(12)5-7/h1-5,12H,(H,13,14)",189.16748,-6.549780381535,-2.63406207284,3.9157183086950003,3.108301061549058
000002102,N#CC(=Cc1ccc(cc1)O)C(=O)O,C10H7NO3,"InChI=1S/C10H7NO3/c11-6-8(10(13)14)5-7-1-3-9(12)4-2-7/h1-5,12H,(H,13,14)",189.16748,-6.517126719475,-2.489841732075,4.0272849874,5.411584444505047
000002105,OC(=O)CCC(C(=O)O)N=C(N)N,C6H11N3O4,"InChI=1S/C6H11N3O4/c7-6(8)9-3(5(12)13)1-2-4(10)11/h3H,1-2H2,(H,10,11)(H,12,13)(H4,7,8,9)",189.16924,-6.664068198745,-0.10068212468500004,6.56338607406,5.42791843675695
000002106,OC(P(=O)(O)O)C=C(CCC=C(CCC=C(C)C)C)C,C15H27O4P,"InChI=1S/C15H27O4P/c1-12(2)7-5-8-13(3)9-6-10-14(4)11-15(16)20(17,18)19/h7,9,11,15-16H,5-6,8,10H2,1-4H3,(H2,17,18,19)",302.346241,-5.7606502150850005,-0.09251870917000016,5.668131505915,4.029075069772341
000002107,CC(Cc1c[nH]c2c1cc(O)cc2)N,C11H14N2O,"InChI=1S/C11H14N2O/c1-7(12)4-8-6-13-11-3-2-9(14)5-10(8)11/h2-3,5-7,13-14H,4,12H2,1H3",190.24166,-5.15927860548,-0.1795951413300001,4.97968346415,1.9933001967302868
000002108,COC1OC(CO)C(C(C1O)O)O,C7H14O6,"InChI=1S/C7H14O6/c1-12-7-6(11)5(10)4(9)3(2-8)13-7/h3-11H,2H2,1H3",194.18246,-6.647741367715,1.493905039245,8.14164640696,2.199637192213752
000002109,OC(=O)CC(C(=O)O)(N)C,C5H9NO4,"InChI=1S/C5H9NO4/c1-5(6,4(9)10)2-3(7)8/h2,6H2,1H3,(H,7,8)(H,9,10)",147.12926,-7.00965278888,-0.4898049309000001,6.51984785798,6.043230098257801
000002110,Oc1cccc(c1)CC(C(=O)O)(N)C,C10H13NO3,"InChI=1S/C10H13NO3/c1-10(11,9(13)14)6-7-3-2-4-8(12)5-7/h2-5,12H,6,11H2,1H3,(H,13,14)",195.21512,-5.8831014478100006,-0.144220340765,5.7388811070450005,4.367310845636821
000002111,CC(C(=O)O)(CCSC)N,C6H13NO2S,"InChI=1S/C6H13NO2S/c1-6(7,5(8)9)3-4-10-2/h3-4,7H2,1-2H3,(H,8,9)",163.23792,-6.10079252821,0.43266102229500003,6.533453550505,6.241957379489386
000002112,COC(=O)C(Cc1ccc(cc1)O)(N)C,C11H15NO3,"InChI=1S/C11H15NO3/c1-11(12,10(14)15-2)7-8-3-5-9(13)6-4-8/h3-6,13H,7,12H2,1-2H3",209.2417,-5.744323384055001,-0.08707643215999994,5.657246951895001,1.278968553044992
000002113,CC(C(=O)O)(CCCN)N,C6H14N2O2,"InChI=1S/C6H14N2O2/c1-6(8,5(9)10)3-2-4-7/h2-4,7-8H2,1H3,(H,9,10)",146.18756,-6.228686037945,0.476199238375,6.70488527632,3.9870913054852406
000002114,[O-]P(=O)(Oc1cccc2c1cccc2)O.[Na+],C10H8NaO4P,"InChI=1S/C10H9O4P.Na/c11-15(12,13)14-10-7-3-5-8-4-1-2-6-9(8)10;/h1-7H,(H2,11,12,13);/q;+1/p-1",246.131651,-6.081744558675,-1.57281805589,4.508926502785,9.731748688153996
000002115,OP(=O)(Oc1cccc2c1cccc2)O,C10H9O4P,"InChI=1S/C10H9O4P/c11-15(12,13)14-10-7-3-5-8-4-1-2-6-9(8)10/h1-7H,(H2,11,12,13)",224.149821,-5.8232364007,-1.0503594629300004,4.7728769377699996,2.6895882783149174
000002116,CC(CCCC1(C)CCc2c(O1)c(C)c(c(c2C)O)C)CCCC(CCCC(C)C)C,C29H50O2,"InChI=1S/C29H50O2/c1-20(2)12-9-13-21(3)14-10-15-22(4)16-11-18-29(8)19-17-26-25(7)27(30)23(5)24(6)28(26)31-29/h20-22,30H,9-19H2,1-8H3",430.7061,-4.857232231425,0.23129677292499995,5.08852900435,0.5754274443872137
000002117,CC(CCCC1(C)CCc2c(O1)c(C)c(c(c2C)OC(=O)C)C)CCCC(CCCC(C)C)C,C31H52O3,"InChI=1S/C31H52O3/c1-21(2)13-10-14-22(3)15-11-16-23(4)17-12-19-31(9)20-18-28-26(7)29(33-27(8)32)24(5)25(6)30(28)34-31/h21-23H,10-20H2,1-9H3",472.74278,-5.341594885315001,0.12245123272500003,5.464046118040001,1.9616590396615818
000002118,Clc1ccc2c(c1)C(=NCc1n2c(C)nn1)c1ccccc1,C17H13ClN4,"InChI=1S/C17H13ClN4/c1-11-20-21-16-10-19-17(12-5-3-2-4-6-12)14-9-13(18)7-8-15(14)22(11)16/h2-9H,10H2,1H3",308.76492,-6.38379093273,-1.8449319063900003,4.53885902634,5.344125069085304
000002119,C=CCc1ccccc1OCC(CNC(C)C)O,C15H23NO2,"InChI=1S/C15H23NO2/c1-4-7-13-8-5-6-9-15(13)18-11-14(17)10-16-12(2)3/h4-6,8-9,12,14,16-17H,1,7,10-11H2,2-3H3",249.34862,-5.880380309305,-0.07074960113000017,5.809630708175,1.5252171900221292
000002120,OC(=O)Cn1c(=O)c2cccc3c2c(c1=O)ccc3,C14H9NO4,"InChI=1S/C14H9NO4/c16-11(17)7-15-13(18)9-5-1-3-8-4-2-6-10(12(8)9)14(15)19/h1-6H,7H2,(H,16,17)",255.22556,-6.963393434295001,-2.8245417681899996,4.138851666105001,9.36714739561805
000002122,C=CCSCC1Nc2cc(Cl)c(cc2S(=O)(=O)N1)S(=O)(=O)N,C11H14ClN3O4S3,"InChI=1S/C11H14ClN3O4S3/c1-2-3-20-6-11-14-8-4-7(12)9(21(13,16)17)5-10(8)22(18,19)15-11/h2,4-5,11,14-15H,1,3,6H2,(H2,13,16,17)",383.89456,-6.381069794225,-1.4313188536300006,4.949750940594999,8.264958190552205
000002123,CN(c1nc(nc(n1)N(C)C)N(C)C)C,C9H18N6,InChI=1S/C9H18N6/c1-13(2)7-10-8(14(3)4)12-9(11-7)15(5)6/h1-6H3,210.27942,-5.77425590761,0.165989448805,5.940245356415,0.3740792379830776
000002126,O=C(c1ccc2c(c1)C(C)(C)CCC2(C)C)Nc1ccc(cc1)C(=O)O,C22H25NO3,"InChI=1S/C22H25NO3/c1-21(2)11-12-22(3,4)18-13-15(7-10-17(18)21)19(24)23-16-8-5-14(6-9-16)20(25)26/h5-10,13H,11-12H2,1-4H3,(H,23,24)(H,25,26)",351.4388,-6.26406083851,-1.1918586651899998,5.07220217332,8.876336794322588
000002127,CCCCCC=CCC=CCC=CCC=CCCCC(=O)Nc1ccc(cc1)O,C26H37NO2,"InChI=1S/C26H37NO2/c1-2-3-4-5-6-7-8-9-10-11-12-13-14-15-16-17-18-19-26(29)27-24-20-22-25(28)23-21-24/h6-7,9-10,12-13,15-16,20-23,28H,2-5,8,11,14,17-19H2,1H3,(H,27,29)",395.57748,-5.276287561195,0.013605692525000102,5.28989325372,2.074465155404882
000002129,OC(CN(CCc1ccc(c(c1)Cl)Cl)C)COc1ccc(cc1)NS(=O)(=O)C,C19H24Cl2N2O4S,"InChI=1S/C19H24Cl2N2O4S/c1-23(10-9-14-3-8-18(20)19(21)11-14)12-16(24)13-27-17-6-4-15(5-7-17)22-28(2,25)26/h3-8,11,16,22,24H,9-10,12-13H2,1-2H3",447.37586,-5.333431469800001,-0.7564765043900001,4.576954965410001,6.369582197461698
000002130,NC12CC3CC(C2)CC(C1)C3,C10H17N,"InChI=1S/C10H17N/c11-10-4-7-1-8(5-10)3-9(2-7)6-10/h7-9H,1-6,11H2",151.24868,-5.92663966389,1.83948962938,7.76612929327,1.1408015133685614
000002134,OCCNCCNc1ccc(c2c1C(=O)c1c(C2=O)cccc1)NCCNCCO,C22H28N4O4,"InChI=1S/C22H28N4O4/c27-13-11-23-7-9-25-17-5-6-18(26-10-8-24-12-14-28)20-19(17)21(29)15-3-1-2-4-16(15)22(20)30/h1-6,23-28H,7-14H2",412.48212,-4.97424118714,-2.4082075769249998,2.566033610215,4.4234457020258535
000002136,OC(=O)Cc1cccc(c1N)C(=O)c1ccccc1,C15H13NO3,"InChI=1S/C15H13NO3/c16-14-11(9-13(17)18)7-4-8-12(14)15(19)10-5-2-1-3-6-10/h1-8H,9,16H2,(H,17,18)",255.26862,-5.72527541452,-1.673500180575,4.051775233945,3.9847695915252115
000002137,CCn1cc(C(=O)O)c(=O)c2c1nc(cc2)Cc1ccccc1,C18H16N2O3,"InChI=1S/C18H16N2O3/c1-2-20-11-15(18(22)23)16(21)14-9-8-13(19-17(14)20)10-12-6-4-3-5-7-12/h3-9,11H,2,10H2,1H3,(H,22,23)",308.33124,-6.479030780405,-2.0082002166900006,4.470830563714999,8.669710930192194
000002138,OC(=O)C(=O)Cc1ccc(cc1)C(=N)N,C10H10N2O3,"InChI=1S/C10H10N2O3/c11-9(12)7-3-1-6(2-4-7)5-8(13)10(14)15/h1-4H,5H2,(H3,11,12)(H,14,15)",206.198,-6.4028389022650005,-2.5034474246,3.8993914776650005,3.116191572851387
000002141,NCCCNCCSP(=O)(O)O,C5H15N2O3PS,"InChI=1S/C5H15N2O3PS/c6-2-1-3-7-4-5-12-11(8,9)10/h7H,1-6H2,(H2,8,9,10)",214.222961,-6.06269658914,-0.01904796953500032,6.043648619604999,1.4998481699605464
000002143,CN1C2CCC1CC(C2)OC(c1ccccc1N)c1ccccc1,C21H26N2O,"InChI=1S/C21H26N2O/c1-23-16-11-12-17(23)14-18(13-16)24-21(15-7-3-2-4-8-15)19-9-5-6-10-20(19)22/h2-10,16-18,21H,11-14,22H2,1H3",322.44394,-5.19193226754,-0.23946018843999983,4.9524720791000005,1.504128770030678
000002144,NCCOCCOCCNC(=O)c1ccc(cc1)S(=O)(=O)N,C13H21N3O5S,"InChI=1S/C13H21N3O5S/c14-5-7-20-9-10-21-8-6-16-13(17)11-1-3-12(4-2-11)22(15,18)19/h1-4H,5-10,14H2,(H,16,17)(H2,15,18,19)",331.38794,-6.26950311552,-1.4313188536300006,4.8381842618899995,3.3461664484926628
000002145,CCC1(CCC(=O)NC1=O)c1ccc(cc1)N,C13H16N2O2,"InChI=1S/C13H16N2O2/c1-2-13(8-7-11(16)15-12(13)17)9-3-5-10(14)6-4-9/h3-6H,2,7-8,14H2,1H3,(H,15,16,17)",232.27834,-5.41506562495,-0.6993325957850001,4.715733029165,4.191014637724616
000002146,NN=C(N)N,CH6N4,"InChI=1S/CH6N4/c2-1(3)5-4/h4H2,(H4,2,3,5)",74.08514,-5.156557466975,1.3360790059549998,6.49263647293,1.2028732439467593
000002147,NC12CCCCC1Cc1c2cccc1,C13H17N,"InChI=1S/C13H17N/c14-13-8-4-3-6-11(13)9-10-5-1-2-7-12(10)13/h1-2,5,7,11H,3-4,6,8-9,14H2",187.28078,-6.00827381904,0.040817077575000305,6.0490908966150005,1.0052384436769217
000002148,O=C(c1ccc(cc1)N)NCC(=O)O,C9H10N2O3,"InChI=1S/C9H10N2O3/c10-7-3-1-6(2-4-7)9(14)11-5-8(12)13/h1-4H,5,10H2,(H,11,14)(H,12,13)",194.1873,-5.89942827884,-0.9279082302050004,4.971520048635,8.942530016571876
000002149,NCC(CC(=O)O)O,C4H9NO3,"InChI=1S/C4H9NO3/c5-2-3(6)1-4(7)8/h3,6H,1-2,5H2,(H,7,8)",119.11916,-6.674952752765,0.05714390860500007,6.73209666137,2.7351369359059516
000002150,NCC(=O)NCCOCCOCCNC(=O)c1ccc(cc1)S(=O)(=O)N,C15H24N4O6S,"InChI=1S/C15H24N4O6S/c16-11-14(20)18-5-7-24-9-10-25-8-6-19-15(21)12-1-3-13(4-2-12)26(17,22)23/h1-4H,5-11,16H2,(H,18,20)(H,19,21)(H2,17,22,23)",388.43926,-6.245012868975,-1.4830204852250004,4.76199238375,2.3340774012318013
000002151,Nc1c(C)n(n(c1=O)c1ccccc1)C,C11H13N3O,"InChI=1S/C11H13N3O/c1-8-10(12)11(15)14(13(8)2)9-6-4-3-5-7-9/h3-7H,12H2,1-2H3",203.24042,-5.303498946245,-0.5551122550200001,4.748386691225,3.8084540476194535
000002152,OC1C(COP(=O)(OP(=O)(O)N)O)OC(C1O)n1cnc2c1[nH]c(N)nc2=O,C10H16N6O10P2,"InChI=1S/C10H16N6O10P2/c11-10-14-7-4(8(19)15-10)13-2-16(7)9-6(18)5(17)3(25-9)1-24-28(22,23)26-27(12,20)21/h2-3,5-6,9,17-18H,1H2,(H,22,23)(H3,12,20,21)(H3,11,14,15,19)",442.215762,-6.032764065585001,-0.5170163159500003,5.5157477496350005,5.8330575094588255
000002153,Cn1c(=O)n(C)c2c(c1=O)[nH]cn2,C7H8N4O2,"InChI=1S/C7H8N4O2/c1-10-5-4(8-3-9-5)6(12)11(2)7(10)13/h3H,1-2H3,(H,8,9)",180.16402,-6.005552680535001,-1.096618817515,4.908933863020001,3.2374852709576922
000002154,OC(=O)CCC(C(=O)O)NC(=O)c1ccc(cc1)NCc1cnc2c(n1)c(N)nc(n2)N,C19H20N8O5,"InChI=1S/C19H20N8O5/c20-15-14-16(27-19(21)26-15)23-8-11(24-14)7-22-10-3-1-9(2-4-10)17(30)25-12(18(31)32)5-6-13(28)29/h1-4,8,12,22H,5-7H2,(H,25,30)(H,28,29)(H,31,32)(H4,20,21,23,26,27)",440.4127,-5.56200710422,-1.9075180920049997,3.6544890122150004,7.378604996784149
000002155,Nc1nccs1,C3H4N2S,"InChI=1S/C3H4N2S/c4-3-5-1-2-6-3/h1-2H,(H2,4,5)",100.14226,-5.6817371984400005,-0.07347073963499984,5.608266458805001,1.699620543960622
000002158,OCC(C1OC2C(C1OCCCN(C)C)OC(O2)(C)C)O,C14H27NO6,"InChI=1S/C14H27NO6/c1-14(2)20-12-11(18-7-5-6-15(3)4)10(9(17)8-16)19-13(12)21-14/h9-13,16-17H,5-8H2,1-4H3",305.36728,-6.22596489944,1.695269288615,7.921234188055,3.780599699768808
000002159,CCN1CCCC1CNC(=O)c1cc(c(cc1OC)N)S(=O)(=O)CC,C17H27N3O4S,"InChI=1S/C17H27N3O4S/c1-4-20-8-6-7-12(20)11-19-17(21)13-9-16(25(22,23)5-2)14(18)10-15(13)24-3/h9-10,12H,4-8,11,18H2,1-3H3,(H,19,21)",369.47898,-5.67085264442,-0.6911691802700002,4.97968346415,0.9975136248041929
000002160,CN(CCC=C1c2ccccc2CCc2c1cccc2)C,C20H23N,"InChI=1S/C20H23N/c1-21(2)15-7-12-20-18-10-5-3-8-16(18)13-14-17-9-4-6-11-19(17)20/h3-6,8-12H,7,13-15H2,1-2H3",277.40332,-5.752486799570001,-0.43810329930500025,5.314383500265,0.6187207233235362
000002161,CC(c1ccc2c(c1)c(=O)c1c(o2)nc(c(c1)C(=O)O)N)C,C16H14N2O4,"InChI=1S/C16H14N2O4/c1-7(2)8-3-4-12-9(5-8)13(19)10-6-11(16(20)21)14(17)18-15(10)22-12/h3-7H,1-2H3,(H2,17,18)(H,20,21)",298.29336,-6.42732914881,-1.9592197235999995,4.468109425210001,5.361594718658526
000002162,NCCOCC1=C(C(=O)OCC)C(C(=C(N1)C)C(=O)OC)c1ccccc1Cl,C20H25ClN2O5,"InChI=1S/C20H25ClN2O5/c1-4-28-20(25)18-15(11-27-10-9-22)23-12(2)16(19(24)26-3)17(18)13-7-5-6-8-14(13)21/h5-8,17,23H,4,9-11,22H2,1-3H3",408.8759,-5.542959134685,-1.385059499045,4.15789963564,0.5274224462060749
000002164,CCC1(CCC(C)C)C(=O)NC(=O)NC1=O,C11H18N2O3,"InChI=1S/C11H18N2O3/c1-4-11(6-5-7(2)3)8(14)12-10(16)13-9(11)15/h7H,4-6H2,1-3H3,(H2,12,13,14,15,16)",226.27222,-7.25999753134,-1.1510415876149995,6.108955943725,1.162466608663664
000002165,CCN(Cc1cc(ccc1O)Nc1ccnc2c1ccc(c2)Cl)CC,C20H22ClN3O,"InChI=1S/C20H22ClN3O/c1-3-24(4-2)13-14-11-16(6-8-20(14)25)23-18-9-10-22-19-12-15(21)5-7-17(18)19/h5-12,25H,3-4,13H2,1-2H3,(H,22,23)",355.86118,-5.308941223255,-1.1211090640599997,4.1878321591950005,7.827023960627309
000002166,CCN(Cc1ccc(cc1O)Nc1ccnc2c1ccc(c2)Cl)CC,C20H22ClN3O,"InChI=1S/C20H22ClN3O/c1-3-24(4-2)13-14-5-7-16(12-20(14)25)23-18-9-10-22-19-11-15(21)6-8-17(18)19/h5-12,25H,3-4,13H2,1-2H3,(H,22,23)",355.86118,-5.336152608305,-1.3143098979149999,4.0218427103900005,7.400756966495386
000002168,CCC(c1ccc(cc1)CC(CN1CC(C)OC(C1)C)C)(C)C,C21H35NO,"InChI=1S/C21H35NO/c1-7-21(5,6)20-10-8-19(9-11-20)12-16(2)13-22-14-17(3)23-18(4)15-22/h8-11,16-18H,7,12-15H2,1-6H3",317.5087,-5.434113594485,0.09796098618000038,5.532074580665,0.8140742932472441
000002169,COc1ccccc1OCCNCC(c1ccc(c(c1)S(=O)(=O)N)C)O,C18H24N2O5S,"InChI=1S/C18H24N2O5S/c1-13-7-8-14(11-18(13)26(19,22)23)15(21)12-20-9-10-25-17-6-4-3-5-16(17)24-2/h3-8,11,15,20-21H,9-10,12H2,1-2H3,(H2,19,22,23)",380.45856,-5.798746154155,-1.0694074324649998,4.7293387216900005,3.7530813802708836
000002170,Clc1ccc2c(c1)C(=Nc1c(O2)cccc1)N1CCNCC1,C17H16ClN3O,"InChI=1S/C17H16ClN3O/c18-12-5-6-15-13(11-12)17(21-9-7-19-8-10-21)20-14-3-1-2-4-16(14)22-15/h1-6,11,19H,7-10H2",313.78144,-5.53479571917,-1.52927983981,4.00551587936,1.2353747172303633
000002171,O=C(C(c1ccc(cc1)O)N)NC1C(=O)N2C1SC(C2C(=O)O)(C)C,C16H19N3O5S,"InChI=1S/C16H19N3O5S/c1-16(2)11(15(23)24)19-13(22)10(14(19)25-16)18-12(21)9(17)7-3-5-8(20)6-4-7/h3-6,9-11,14,20H,17H2,1-2H3,(H,18,21)(H,23,24)",365.40416,-5.9348030794049995,-1.0857342634949996,4.84906881591,4.7064573882967435
000002172,OC(=O)C1N2C(OC1=CCO)CC2=O,C8H9NO5,"InChI=1S/C8H9NO5/c10-2-1-4-7(8(12)13)9-5(11)3-6(9)14-4/h1,6-7,10H,2-3H2,(H,12,13)",199.16076,-6.277666531035,-0.8898122911349997,5.3878542399,5.49628335744492
000002174,NC(c1ccccc1)C(=O)NC1C(=O)N2C1SC(C2C(=O)O)(C)C,C16H19N3O4S,"InChI=1S/C16H19N3O4S/c1-16(2)11(15(22)23)19-13(21)10(14(19)24-16)18-12(20)9(17)8-6-4-3-5-7-8/h3-7,9-11,14H,17H2,1-2H3,(H,18,20)(H,22,23)",349.40476,-6.40011776376,-0.9387927842249999,5.461324979535,6.498245011121233
000002176,CCOC(=O)OC(OC1=C(C(=O)Nc2ccccn2)N(C)S(=O)(=O)c2c1cccc2)C,C20H21N3O7S,"InChI=1S/C20H21N3O7S/c1-4-28-20(25)30-13(2)29-18-14-9-5-6-10-15(14)31(26,27)23(3)17(18)19(24)22-16-11-7-8-12-21-16/h5-13H,4H2,1-3H3,(H,21,22,24)",447.46164,-5.632756705349999,-1.6871058731000002,3.9456508322499992,6.089672461138941
000002179,COc1cc(ccc1Nc1c2ccccc2nc2c1cccc2)NS(=O)(=O)C,C21H19N3O3S,"InChI=1S/C21H19N3O3S/c1-27-20-13-14(24-28(2,25)26)11-12-19(20)23-21-15-7-3-5-9-17(15)22-18-10-6-4-8-16(18)21/h3-13,24H,1-2H3,(H,22,23)",393.45886,-4.93070297106,-1.5755391943950001,3.3551637766649995,5.136934253030985
000002180,OCC1OC(OCC2OC(OC(c3ccccc3)C#N)C(C(C2O)O)O)C(C(C1O)O)O,C20H27NO11,"InChI=1S/C20H27NO11/c21-6-10(9-4-2-1-3-5-9)30-20-18(28)16(26)14(24)12(32-20)8-29-19-17(27)15(25)13(23)11(7-22)31-19/h1-5,10-20,22-28H,7-8H2",457.42848,-6.555222658545,-0.68572690326,5.8694957552850004,7.084604780040309
000002181,C1CCC(NC1)c1cccnc1,C10H14N2,"InChI=1S/C10H14N2/c1-2-7-12-10(5-1)9-4-3-6-11-8-9/h3-4,6,8,10,12H,1-2,5,7H2",162.23156,-6.19331123738,-0.5333431469800001,5.6599680904,2.352282502173793
000002182,O=C1N=C2N(C1)Cc1c(N2)ccc(c1Cl)Cl,C10H7Cl2N3O,"InChI=1S/C10H7Cl2N3O/c11-6-1-2-7-5(9(6)12)3-15-4-8(16)14-10(15)13-7/h1-2H,3-4H2,(H,13,14,16)",256.08808,-6.37834865572,-1.3469635599750003,5.031385095745,4.768710207404304
000002183,CCCCCC=CCC=CCCCCCCCC(=O)NCCO,C20H37NO2,"InChI=1S/C20H37NO2/c1-2-3-4-5-6-7-8-9-10-11-12-13-14-15-16-17-20(23)21-18-19-22/h6-7,9-10,22H,2-5,8,11-19H2,1H3,(H,21,23)",323.51328,-6.17698440635,0.5687179475450002,6.745702353895,3.1497126832555695
000002184,CCCCCC=CCC=CCC=CCCCCCCC(=O)NCCO,C22H39NO2,"InChI=1S/C22H39NO2/c1-2-3-4-5-6-7-8-9-10-11-12-13-14-15-16-17-18-19-22(25)23-20-21-24/h6-7,9-10,12-13,24H,2-5,8,11,14-21H2,1H3,(H,23,25)",349.55056,-6.13344619027,0.4054496372449998,6.538895827515,3.071784752059623
000002185,CCCCCC=CCC=CCC=CCC=CCCCC(=O)NCCO,C22H37NO2,"InChI=1S/C22H37NO2/c1-2-3-4-5-6-7-8-9-10-11-12-13-14-15-16-17-18-19-22(25)23-20-21-24/h6-7,9-10,12-13,15-16,24H,2-5,8,11,14,17-21H2,1H3,(H,23,25)",347.53468,-6.21508034542,0.18775855684499998,6.402838902265,3.364198415303265
000002186,CCCCCC=CCC=CCC=CCC=CCCCCCC(=O)NCCO,C24H41NO2,"InChI=1S/C24H41NO2/c1-2-3-4-5-6-7-8-9-10-11-12-13-14-15-16-17-18-19-20-21-24(27)25-22-23-26/h6-7,9-10,12-13,15-16,26H,2-5,8,11,14,17-23H2,1H3,(H,25,27)",375.58784,-6.18242668336,0.24218132694500039,6.4246080103050005,3.6316011832585633
000002187,N#CC(c1cc(cc(c1)C(C#N)(C)C)Cn1ncnc1)(C)C,C17H19N5,"InChI=1S/C17H19N5/c1-16(2,9-18)14-5-13(8-22-12-20-11-21-22)6-15(7-14)17(3,4)10-19/h5-7,11-12H,8H2,1-4H3",293.36626,-7.03142189692,-1.0204269393750005,6.010994957545,1.9204388224804247
000002189,Clc1c(O)c(cc2c1ccn2S(=O)(=O)O)OS(=O)(=O)O,C8H6ClNO8S2,"InChI=1S/C8H6ClNO8S2/c9-7-4-1-2-10(19(12,13)14)5(4)3-6(8(7)11)18-20(15,16)17/h1-3,11H,(H,12,13,14)(H,15,16,17)",343.71814,-6.27494539253,-1.21907005024,5.05587534229,2.378923451749972
000002191,Oc1c(O)cc2c(c1Cl)ccn2S(=O)(=O)O,C8H6ClNO5S,"InChI=1S/C8H6ClNO5S/c9-7-4-1-2-10(16(13,14)15)5(4)3-6(11)8(7)12/h1-3,11-12H,(H,13,14,15)",263.65494,-5.7388811070450005,-0.7755244739250005,4.96335663312,2.4879741368898913
000002192,O=C1C=CC2(C(=C1)CCC1C2CCC2(C1CCC2=O)C)C,C19H24O2,"InChI=1S/C19H24O2/c1-18-9-7-13(20)11-12(18)3-4-14-15-5-6-17(21)19(15,2)10-8-16(14)18/h7,9,11,14-16H,3-6,8,10H2,1-2H3",284.39266,-5.044990788270001,-1.7769034437649998,3.268087344505001,1.778784153914409
000002193,O=C1CCC2(C(=C1)CCC1C2CCC2(C1CCC2=O)C)C,C19H26O2,"InChI=1S/C19H26O2/c1-18-9-7-13(20)11-12(18)3-4-14-15-5-6-17(21)19(15,2)10-8-16(14)18/h11,14-16H,3-10H2,1-2H3",286.40854,-6.285829946550001,-1.2136277732299998,5.072202173320001,3.507363562309587
000002194,COc1ccc(cc1)c1ssc(=S)c1,C10H8OS3,"InChI=1S/C10H8OS3/c1-11-8-4-2-7(3-5-8)9-6-10(12)14-13-9/h2-6H,1H3",240.36492,-5.880380309305,-2.190516496525,3.68986381278,6.782155637191099