mol_id,SMILES,formula,inchi,mass,HOMO(eV),LUMO(eV),GAP(eV),dipole_moment
000002799,Clc1ccc(c(c1)Cl)Cc1cc(ccc1O)C(CC(C)(C)C)(C)C,C21H26Cl2O,"InChI=1S/C21H26Cl2O/c1-20(2,3)13-21(4,5)16-7-9-19(24)15(11-16)10-14-6-8-17(22)12-18(14)23/h6-9,11-12,24H,10,13H2,1-5H3",365.33654,-5.809630708175,-0.7782456124300001,5.031385095745,1.4146654894302753
000002800,CCN(CCOc1ccc(cc1)C(=C(c1ccccc1)Cl)c1ccccc1)CC,C26H28ClNO,"InChI=1S/C26H28ClNO/c1-3-28(4-2)19-20-29-24-17-15-22(16-18-24)25(21-11-7-5-8-12-21)26(27)23-13-9-6-10-14-23/h5-18H,3-4,19-20H2,1-2H3",405.95962,-5.3062200847500005,-0.95239847675,4.3538216080000005,1.8737928273525866
000002801,CN(CCCN1c2ccccc2CCc2c1cc(Cl)cc2)C,C19H23ClN2,"InChI=1S/C19H23ClN2/c1-21(2)12-5-13-22-18-7-4-3-6-15(18)8-9-16-10-11-17(20)14-19(16)22/h3-4,6-7,10-11,14H,5,8-9,12-13H2,1-2H3",314.85232,-5.189211129035001,-0.22857563442000028,4.960635494615,3.3111755785658663
000002802,O=C1CN=C(c2c(N1)ccc(c2)[N+](=O)[O-])c1ccccc1Cl,C15H10ClN3O3,"InChI=1S/C15H10ClN3O3/c16-12-4-2-1-3-10(12)15-11-7-9(19(21)22)5-6-13(11)18-14(20)8-17-15/h1-7H,8H2,(H,18,20)",315.7112,-6.824615370540001,-2.5061685631050006,4.318446807435,2.4435307016393306
000002803,Clc1cccc(c1NC1=NCCN1)Cl,C9H9Cl2N3,"InChI=1S/C9H9Cl2N3/c10-6-2-1-3-7(11)8(6)14-9-12-4-5-13-9/h1-3H,4-5H2,(H2,12,13,14)",230.09386,-5.624593289835,-0.8190626900050004,4.80553059983,3.2191725356959355
000002804,CC1CCCC(N1NC(=O)c1ccc(c(c1)S(=O)(=O)N)Cl)C,C14H20ClN3O3S,"InChI=1S/C14H20ClN3O3S/c1-9-4-3-5-10(2)18(9)17-14(19)11-6-7-12(15)13(8-11)22(16,20)21/h6-10H,3-5H2,1-2H3,(H,17,19)(H2,16,20,21)",345.8449,-6.283108808045,-1.57281805589,4.710290752155,1.2573750527320795
000002805,Clc1ccc(cc1)C(c1ccccc1)OCCN1CCCCC1,C20H24ClNO,"InChI=1S/C20H24ClNO/c21-19-11-9-18(10-12-19)20(17-7-3-1-4-8-17)23-16-15-22-13-5-2-6-14-22/h1,3-4,7-12,20H,2,5-6,13-16H2",329.86366,-5.64364125937,-0.41089191425500005,5.232749345115,3.045985698153063
000002806,COC(=O)C(c1ccccc1Cl)N1CCc2c(C1)ccs2,C16H16ClNO2S,"InChI=1S/C16H16ClNO2S/c1-20-16(19)15(12-4-2-3-5-13(12)17)18-8-6-14-11(10-18)7-9-21-14/h2-5,7,9,15H,6,8,10H2,1H3",321.82174,-5.907591694355,-0.7102171498050005,5.19737454455,1.8717697294811668
000002808,OC(=O)CCCC=CCC1C(O)CC(C1C=CC(COc1cccc(c1)Cl)O)O,C22H29ClO6,"InChI=1S/C22H29ClO6/c23-15-6-5-7-17(12-15)29-14-16(24)10-11-19-18(20(25)13-21(19)26)8-3-1-2-4-9-22(27)28/h1,3,5-7,10-12,16,18-21,24-26H,2,4,8-9,13-14H2,(H,27,28)",424.91506,-6.375627517215,-0.5932081940899998,5.7824193231250005,3.5913054238783424
000002809,OC(=O)C1N=C(c2ccccc2)c2c(NC1=O)ccc(c2)Cl,C16H11ClN2O3,"InChI=1S/C16H11ClN2O3/c17-10-6-7-12-11(8-10)13(9-4-2-1-3-5-9)19-14(16(21)22)15(20)18-12/h1-8,14H,(H,18,20)(H,21,22)",314.72314,-6.65046250622,-2.092555510345,4.557906995875,7.530820386600519
000002810,CC(NCC(c1ccccc1Cl)O)C,C11H16ClNO,"InChI=1S/C11H16ClNO/c1-8(2)13-7-11(14)9-5-3-4-6-10(9)12/h3-6,8,11,13-14H,7H2,1-2H3",213.70384,-5.84500550874,-0.47892037687999967,5.36608513186,2.43847480374311
000002811,CCc1sc2c(c1)C(=NCC(=O)N2C)c1ccccc1Cl,C16H15ClN2OS,"InChI=1S/C16H15ClN2OS/c1-3-10-8-12-15(11-6-4-5-7-13(11)17)18-9-14(20)19(2)16(12)21-10/h4-8H,3,9H2,1-2H3",318.8211,-5.689900613955,-1.2381180197749995,4.451782594180001,4.669983801892786
000002812,Clc1ccccc1C(n1cncc1)(c1ccccc1)c1ccccc1,C22H17ClN2,"InChI=1S/C22H17ClN2/c23-21-14-8-7-13-20(21)22(25-16-15-24-17-25,18-9-3-1-4-10-18)19-11-5-2-6-12-19/h1-17H",344.83678,-5.69262175246,-0.7728033354199999,4.91981841704,5.005021589949038
000002814,OC(=O)C1N2C(=O)C(C2SC1(C)C)NC(=O)c1c(C)onc1c1ccccc1Cl,C19H18ClN3O5S,"InChI=1S/C19H18ClN3O5S/c1-8-11(12(22-28-8)9-6-4-5-7-10(9)20)15(24)21-13-16(25)23-14(18(26)27)19(2,3)29-17(13)23/h4-7,13-14,17H,1-3H3,(H,21,24)(H,26,27)",435.88132,-6.642299090705,-1.5102318702749997,5.132067220430001,4.753274956754448
000002816,O=C1Nc2ccc(cc2C2(N(C1)CCO2)c1ccccc1Cl)Cl,C17H14Cl2N2O2,"InChI=1S/C17H14Cl2N2O2/c18-11-5-6-15-13(9-11)17(12-3-1-2-4-14(12)19)21(7-8-23-17)10-16(22)20-15/h1-6,9H,7-8,10H2,(H,20,22)",349.21126,-6.054533173625,-0.8462740750549997,5.20825909857,1.5047965022852758
000002817,Clc1ccc(c2c1cccn2)O,C9H6ClNO,"InChI=1S/C9H6ClNO/c10-7-3-4-8(12)9-6(7)2-1-5-11-9/h1-5,12H",179.60304,-5.80146729266,-1.5020684547599998,4.2993988379,1.1511780085473315
000002818,CN1CCN(CC1)C1=c2ccccc2=Nc2c(N1)cc(Cl)cc2,C18H19ClN4,"InChI=1S/C18H19ClN4/c1-22-8-10-23(11-9-22)18-14-4-2-3-5-15(14)20-16-7-6-13(19)12-17(16)21-18/h2-7,12,21H,8-11H2,1H3",326.82326,-4.70212733664,-1.929287200045,2.772840136595,5.107604705079378
000002819,Clc1ccc2c(c1)NC(=c1c(=N2)cccc1)N1CC[N+](CC1)([O-])C,C18H19ClN4O,"InChI=1S/C18H19ClN4O/c1-23(24)10-8-22(9-11-23)18-14-4-2-3-5-15(14)20-16-7-6-13(19)12-17(16)21-18/h2-7,12,21H,8-11H2,1H3",342.82266,-5.0830867273399996,-2.1959587735349997,2.887127953805,1.0473972766223905
000002820,Clc1ccc2c(c1)NC(=c1c(=N2)cccc1)N1CCNCC1,C17H17ClN4,"InChI=1S/C17H17ClN4/c18-12-5-6-15-16(11-12)21-17(22-9-7-19-8-10-22)13-3-1-2-4-14(13)20-15/h1-6,11,19,21H,7-10H2",312.79668,-4.69124278262,-1.89391239948,2.79733038314,4.63667338370992
000002825,CCOC(=O)C1C(CC2N(C1CC2)C)OC(=O)c1ccccc1,C18H23NO4,"InChI=1S/C18H23NO4/c1-3-22-18(21)16-14-10-9-13(19(14)2)11-15(16)23-17(20)12-7-5-4-6-8-12/h4-8,13-16H,3,9-11H2,1-2H3",317.37952,-5.602824181795,-1.3333578674500002,4.269466314345,2.3642796567794173
000002826,COC(=O)C1C(CC2N(C1CC2)C)OC(=O)c1ccccc1,C17H21NO4,"InChI=1S/C17H21NO4/c1-18-12-8-9-13(18)15(17(20)21-2)14(10-12)22-16(19)11-6-4-3-5-7-11/h3-7,12-15H,8-10H2,1-2H3",303.35294,-5.684458336945,-1.3115887594100002,4.372869577535,2.763062790915364
000002828,COc1ccc2c3c1OC1C43CCN(C(C2)C4C=CC1O)C,C18H21NO3,"InChI=1S/C18H21NO3/c1-19-8-7-18-11-4-5-13(20)17(18)22-16-14(21-2)6-3-10(15(16)18)9-12(11)19/h3-6,11-13,17,20H,7-9H2,1-2H3",299.36424,-5.1619997439850005,0.14966261777500023,5.311662361760001,2.334139928674371
000002829,Oc1ccc(cc1)CC1(O)N=c2n(C1=O)cc(nc2Cc1ccccc1)c1ccc(cc1)O,C26H21N3O4,"InChI=1S/C26H21N3O4/c30-20-10-6-18(7-11-20)15-26(33)25(32)29-16-23(19-8-12-21(31)13-9-19)27-22(24(29)28-26)14-17-4-2-1-3-5-17/h1-13,16,30-31,33H,14-15H2",439.46264,-5.504863195615,-2.30752545224,3.197337743375,2.6165480841522863
000002830,Oc1ccc(cc1)Cc1nc2n(c1=O)cc([nH]c2Cc1ccccc1)c1ccc(cc1)O,C26H21N3O3,"InChI=1S/C26H21N3O3/c30-20-10-6-18(7-11-20)15-23-26(32)29-16-24(19-8-12-21(31)13-9-19)27-22(25(29)28-23)14-17-4-2-1-3-5-17/h1-13,16,27,30-31H,14-15H2",423.46324,-4.536137887834999,-1.32791559044,3.2082222973949994,6.956633406043113
000002832,CNC1CCc2c(c3c1cc(=O)c(cc3)OC)c(OC)c(c(c2)OC)OC,C21H25NO5,"InChI=1S/C21H25NO5/c1-22-15-8-6-12-10-18(25-3)20(26-4)21(27-5)19(12)13-7-9-17(24-2)16(23)11-14(13)15/h7,9-11,15,22H,6,8H2,1-5H3",371.4269,-5.2055379600650005,-1.2136277732299998,3.9919101868350007,4.210022626316515
000002833,COc1c(OC)cc2c(c1OC)c1ccc(c(=O)cc1C(CC2)NC(=O)C)OC,C22H25NO6,"InChI=1S/C22H25NO6/c1-12(24)23-16-8-6-13-10-19(27-3)21(28-4)22(29-5)20(13)14-7-9-18(26-2)17(25)11-15(14)16/h7,9-11,16H,6,8H2,1-5H3,(H,23,24)",399.437,-4.887164754980001,-1.5782603329000002,3.3089044220800004,5.092986034752697
000002854,CCC(C(=O)OC1CCC=C2C1C(CCC1CC(O)CC(=O)O1)C(C=C2)C)C,C23H34O5,"InChI=1S/C23H34O5/c1-4-14(2)23(26)28-20-7-5-6-16-9-8-15(3)19(22(16)20)11-10-18-12-17(24)13-21(25)27-18/h6,8-9,14-15,17-20,22,24H,4-5,7,10-13H2,1-3H3",390.51306,-5.074923311825,-1.2707716818349999,3.80415162999,3.800463033828773
000002856,OCCNc1nc(Nc2cccc(c2)Cl)c2c(n1)n(cn2)C(C)C,C16H19ClN6O,"InChI=1S/C16H19ClN6O/c1-10(2)23-9-19-13-14(20-12-5-3-4-11(17)8-12)21-16(18-6-7-24)22-15(13)23/h3-5,8-10,24H,6-7H2,1-2H3,(H2,18,20,21,22)",346.81466,-5.254518453155,-0.8762065986099996,4.378311854545,5.269137182422659
000002859,OC1C(O)C(O)C2C(C1O)O2,C6H10O5,InChI=1S/C6H10O5/c7-1-2(8)4(10)6-5(11-6)3(1)9/h1-10H,162.1406,-6.5688283510700005,0.7156594268149998,7.284487777885,2.5481097268090713
000002860,CN(C1CCC2(C(=CCC3C2CCC24C3CCC4C(N(C2)C)C)C1)C)C,C24H40N2,"InChI=1S/C24H40N2/c1-16-20-8-9-22-19-7-6-17-14-18(25(3)4)10-12-23(17,2)21(19)11-13-24(20,22)15-26(16)5/h6,16,18-22H,7-15H2,1-5H3",356.5878,-4.44634031717,-0.7836878894399999,3.66265242773,1.5830768706607397
000002863,CC(=O)OCC(=O)C1(O)CCC2C1(C)CC(=O)C1C2CCC2=CC(=O)CCC12C,C23H30O6,"InChI=1S/C23H30O6/c1-13(24)29-12-19(27)23(28)9-7-17-16-5-4-14-10-15(25)6-8-21(14,2)20(16)18(26)11-22(17,23)3/h10,16-17,20,28H,4-9,11-12H2,1-3H3",402.4807,-5.986504711,-1.3469635599750003,4.639541151025,7.832960446378879
000002866,COC(=O)C1C(O)CCC2C1CC1N(C2)CCc2c1[nH]c1c2cccc1,C21H26N2O3,"InChI=1S/C21H26N2O3/c1-26-21(25)19-15-10-17-20-14(13-4-2-3-5-16(13)22-20)8-9-23(17)11-12(15)6-7-18(19)24/h2-5,12,15,17-19,22,24H,6-11H2,1H3",354.44274,-5.20281682156,-0.144220340765,5.058596480795,2.425382579109943
000002868,O=C(C(=O)c1c[nH]c2c1cccc2)NC=Cc1c[nH]c2c1cccc2,C20H15N3O2,"InChI=1S/C20H15N3O2/c24-19(16-12-23-18-8-4-2-6-15(16)18)20(25)21-10-9-13-11-22-17-7-3-1-5-14(13)17/h1-12,22-23H,(H,21,25)",329.352,-4.911655001525,-1.73608636619,3.1755686353350003,1.2128317659382937
000002871,CCOP(=S)(Oc1ccc2c(c1)oc(=O)c(c2C)Cl)OCC,C14H16ClO5PS,"InChI=1S/C14H16ClO5PS/c1-4-17-21(22,18-5-2)20-10-6-7-11-9(3)13(15)14(16)19-12(11)8-10/h6-8H,4-5H2,1-3H3",362.765601,-6.174263267845,-1.9755465546300002,4.198716713215,2.717777059500282
000002873,OC(=O)C1CN(C1)C(=O)C(NC(=O)c1cc2c([nH]1)ccc(c2)Cl)Cc1ccccc1,C22H20ClN3O4,"InChI=1S/C22H20ClN3O4/c23-16-6-7-17-14(9-16)10-18(24-17)20(27)25-19(8-13-4-2-1-3-5-13)21(28)26-11-15(12-26)22(29)30/h1-7,9-10,15,19,24H,8,11-12H2,(H,25,27)(H,29,30)",425.8649,-5.95929332595,-1.341521282965,4.617772042985,4.863699150179727
000002874,OC1CCN(CC1)C(=O)C(NC(=O)c1cc2c([nH]1)ccc(c2)Cl)Cc1ccc(cc1)F,C23H23ClFN3O3,"InChI=1S/C23H23ClFN3O3/c24-16-3-6-19-15(12-16)13-20(26-19)22(30)27-21(11-14-1-4-17(25)5-2-14)23(31)28-9-7-18(29)8-10-28/h1-6,12-13,18,21,26,29H,7-11H2,(H,27,30)",443.8984232,-6.141609605785001,-1.5646546403750001,4.576954965410001,2.9696432945067666
000002875,NC(C(C(C(=O)O)(F)F)O)CC1CCCCC1,C11H19F2NO3,"InChI=1S/C11H19F2NO3/c12-11(13,10(16)17)9(15)8(14)6-7-4-2-1-3-5-7/h7-9,15H,1-6,14H2,(H,16,17)",251.2702664,-6.22596489944,-1.0367537704050003,5.189211129035,1.9208929490216262
000002876,OCCSC1=C(C)C(=O)c2c(C1=O)cccc2,C13H12O3S,"InChI=1S/C13H12O3S/c1-8-11(15)9-4-2-3-5-10(9)12(16)13(8)17-7-6-14/h2-5,14H,6-7H2,1H3",248.29758,-6.31848360861,-3.278971898525,3.039511710085,3.4289556340509866
000002877,COc1ccc2c(c1)c(CCNC(=O)C1CC1)c[nH]2,C15H18N2O2,"InChI=1S/C15H18N2O2/c1-19-12-4-5-14-13(8-12)11(9-17-14)6-7-16-15(18)10-2-3-10/h4-5,8-10,17H,2-3,6-7H2,1H3,(H,16,18)",258.31562,-5.210980237075,-0.1251723712299997,5.085807865845,2.2205234089416845
000002878,OC(=O)C(c1ccc(cc1)P(=O)(O)O)(C1CC1)N,C11H14NO5P,"InChI=1S/C11H14NO5P/c12-11(10(13)14,7-1-2-7)8-3-5-9(6-4-8)18(15,16)17/h3-7H,1-2,12H2,(H,13,14)(H2,15,16,17)",271.206321,-6.889922694659999,-1.1428781720999996,5.7470445225599995,5.705314024154849
000002879,Cc1ccc(cc1)O,C7H8O,"InChI=1S/C7H8O/c1-6-2-4-7(8)5-3-6/h2-5,8H,1H3",108.13782,-5.6599680904,0.035374800565000086,5.695342890965,1.301083451601011
000002880,Clc1cccc(c1)COc1ccccc1C(=C)n1cncc1,C18H15ClN2O,"InChI=1S/C18H15ClN2O/c1-14(21-10-9-20-13-21)17-7-2-3-8-18(17)22-12-15-5-4-6-16(19)11-15/h2-11,13H,1,12H2",310.7775,-5.986504711,-0.7619187814000004,5.2245859296,4.7644975401448155
000002882,OC(COc1cccc2c1c(=O)cc(o2)C(=O)O)COc1cccc2c1c(=O)cc(o2)C(=O)O,C23H16O11,"InChI=1S/C23H16O11/c24-11(9-31-14-3-1-5-16-20(14)12(25)7-18(33-16)22(27)28)10-32-15-4-2-6-17-21(15)13(26)8-19(34-17)23(29)30/h1-8,11,24H,9-10H2,(H,27,28)(H,29,30)",468.36654,-6.31848360861,-2.6177352418099997,3.7007483668000005,7.920480507681905
000002883,CC=CC(=O)N(c1ccccc1C)CC,C13H17NO,"InChI=1S/C13H17NO/c1-4-8-13(15)14(5-2)12-10-7-6-9-11(12)3/h4,6-10H,5H2,1-3H3",203.28018,-6.125282774755,-0.786409027945,5.33887374681,2.969649566933277
000002889,COc1cc(C=CC(=O)CC(=O)C=Cc2ccc(c(c2)OC)O)ccc1O,C21H20O6,"InChI=1S/C21H20O6/c1-26-20-11-14(5-9-18(20)24)3-7-16(22)13-17(23)8-4-15-6-10-19(25)21(12-15)27-2/h3-12,24-25H,13H2,1-2H3",368.3799,-5.586497350765001,-1.9320083385499998,3.654489012215001,6.127119649362251
000002890,O=C(c1ccc2c(c1)OCCO2)N1CCCCC1,C14H17NO3,"InChI=1S/C14H17NO3/c16-14(15-6-2-1-3-7-15)11-4-5-12-13(10-11)18-9-8-17-12/h4-5,10H,1-3,6-9H2",247.28968,-5.727996553025,-0.11973009422000036,5.608266458805,4.329428480010844
000002893,CC1CC(OC(=O)C(c2ccccc2)O)CC(C1)(C)C,C17H24O3,"InChI=1S/C17H24O3/c1-12-9-14(11-17(2,3)10-12)20-16(19)15(18)13-7-5-4-6-8-13/h4-8,12,14-15,18H,9-11H2,1-3H3",276.37066,-6.72121210735,-0.45987240734500023,6.261339700005,2.337184681535244
000002894,COc1cc2nc(nc(c2cc1OC)N)N1CCN(C2C1CCCC2)C(=O)c1ccco1,C23H27N5O4,"InChI=1S/C23H27N5O4/c1-30-19-12-14-15(13-20(19)31-2)25-23(26-21(14)24)28-10-9-27(16-6-3-4-7-17(16)28)22(29)18-8-5-11-32-18/h5,8,11-13,16-17H,3-4,6-7,9-10H2,1-2H3,(H2,24,25,26)",437.49158,-4.9524720791,-0.7755244739249996,4.176947605175,5.320129823367189
000002895,CN(CCC=C1c2ccccc2C=Cc2c1cccc2)C,C20H21N,"InChI=1S/C20H21N/c1-21(2)15-7-12-20-18-10-5-3-8-16(18)13-14-17-9-4-6-11-19(17)20/h3-6,8-14H,7,15H2,1-2H3",275.38744,-5.66541036741,-0.8680431830949997,4.797367184315,0.7603045145223064
000002896,NC1=NCCN1CC(=O)O,C5H9N3O2,"InChI=1S/C5H9N3O2/c6-5-7-1-2-8(5)3-4(9)10/h1-3H2,(H2,6,7)(H,9,10)",143.14386,-6.24229173047,0.040817077575000305,6.283108808045,3.1440032838155556
000002897,NC1CCCCCCCCCCC1,C12H25N,"InChI=1S/C12H25N/c13-12-10-8-6-4-2-1-3-5-7-9-11-12/h12H,1-11,13H2",183.3336,-6.032764065585001,2.027248186225,8.06001225181,1.4389751202873522
000002898,CC(=O)Oc1ccc(cc1)C(=C1CCCCC1)c1ccc(cc1)OC(=O)C,C23H24O4,"InChI=1S/C23H24O4/c1-16(24)26-21-12-8-19(9-13-21)23(18-6-4-3-5-7-18)20-10-14-22(15-11-20)27-17(2)25/h8-15H,3-7H2,1-2H3",364.43426,-5.74160224555,-0.5551122550200001,5.18648999053,1.3469900822641567
000002899,NC1CCCCCC1,C7H15N,"InChI=1S/C7H15N/c8-7-5-3-1-2-4-6-7/h7H,1-6,8H2",113.2007,-5.94840877193,2.0816709563250004,8.030079728255,1.3068065426148585
000002900,CC1CC(C)C(=O)C(C1)C(CC1CC(=O)NC(=O)C1)O,C15H23NO4,"InChI=1S/C15H23NO4/c1-8-3-9(2)15(20)11(4-8)12(17)5-10-6-13(18)16-14(19)7-10/h8-12,17H,3-7H2,1-2H3,(H,16,18,19)",281.34742,-6.821894232035,-1.0231480778800002,5.798746154154999,3.4988767762883564
000002901,OC(=O)C1(N)CCCC1,C6H11NO2,"InChI=1S/C6H11NO2/c7-6(5(8)9)3-1-2-4-6/h1-4,7H2,(H,8,9)",129.15704,-6.702164137815,0.46531468435500045,7.1674788221700005,5.084033924467852
000002902,CC(CC1NC(=O)CNC1=O)C,C8H14N2O2,"InChI=1S/C8H14N2O2/c1-5(2)3-6-8(12)9-4-7(11)10-6/h5-6H,3-4H2,1-2H3,(H,9,12)(H,10,11)",170.20896,-6.6395779522,0.24762360395499972,6.8872015561549995,1.540854017975097
000002903,NC1CCCCCCC1,C8H17N,"InChI=1S/C8H17N/c9-8-6-4-2-1-3-5-7-8/h8H,1-7,9H2",127.22728,-5.96473560296,2.122488033899999,8.08722363686,1.2565429076446215
000002904,Clc1cc2NC(CC3CCCC3)NS(=O)(=O)c2cc1S(=O)(=O)N,C13H18ClN3O4S2,"InChI=1S/C13H18ClN3O4S2/c14-9-6-10-12(7-11(9)22(15,18)19)23(20,21)17-13(16-10)5-8-3-1-2-4-8/h6-8,13,16-17H,1-5H2,(H2,15,18,19)",379.88272,-6.38379093273,-1.3959440530650005,4.987846879665,9.663452329111475
000002905,CN(CCOC(=O)C(C1(O)CCCC1)c1ccccc1)C,C17H25NO3,"InChI=1S/C17H25NO3/c1-18(2)12-13-21-16(19)15(14-8-4-3-5-9-14)17(20)10-6-7-11-17/h3-5,8-9,15,20H,6-7,10-13H2,1-2H3",291.3853,-5.972899018475,-0.23673904993500017,5.73615996854,1.5335746603938134
000002906,NC1CCCC1,C5H11N,"InChI=1S/C5H11N/c6-5-3-1-2-4-5/h5H,1-4,6H2",85.14754,-5.986504711,1.8449319063900003,7.8314366173900005,1.3276095466593332
000002907,ClCCN(P1(=O)NCCCO1)CCCl,C7H15Cl2N2O2P,"InChI=1S/C7H15Cl2N2O2P/c8-2-5-11(6-3-9)14(12)10-4-1-7-13-14/h1-7H2,(H,10,12)",261.085961,-6.949787741770001,0.4707569613649998,7.4205447031350005,5.8577582492547435
000002910,Clc1cc2NC(NS(=O)(=O)c2cc1S(=O)(=O)N)C1CC2CC1C=C2,C14H16ClN3O4S2,"InChI=1S/C14H16ClN3O4S2/c15-10-5-11-13(6-12(10)23(16,19)20)24(21,22)18-14(17-11)9-4-7-1-2-8(9)3-7/h1-2,5-9,14,17-18H,3-4H2,(H2,16,19,20)",389.87754,-6.34569499366,-1.3741749450249996,4.971520048635,9.033558502318508
000002911,OC(c1ccccc1)(C1CCCC1)CCN1CCCCC1,C19H29NO,"InChI=1S/C19H29NO/c21-19(18-11-5-6-12-18,17-9-3-1-4-10-17)13-16-20-14-7-2-8-15-20/h1,3-4,9-10,18,21H,2,5-8,11-16H2",287.43966,-5.94296649492,0.35646914415499964,6.299435639075,3.2764922878178733
000002912,N#CC(c1cccc(c1)Oc1ccccc1)OC(=O)C1C(C1(C)C)C=C(Cl)Cl,C22H19Cl2NO3,"InChI=1S/C22H19Cl2NO3/c1-22(2)17(12-19(23)24)20(22)21(26)28-18(13-25)14-7-6-10-16(11-14)27-15-8-4-3-5-9-15/h3-12,17-18,20H,1-2H3",416.29716,-6.11167708223,-0.851716352065,5.259960730165,3.5655888647669403
000002913,CN1CCC(=C2c3ccccc3C=Cc3c2cccc3)CC1,C21H21N,"InChI=1S/C21H21N/c1-22-14-12-18(13-15-22)21-19-8-4-2-6-16(19)10-11-17-7-3-5-9-20(17)21/h2-11H,12-15H2,1H3",287.39814,-5.341594885315001,-0.8707643216000003,4.470830563715,0.811450354735889
000002914,CC(=O)OC1(CCC2C1(C)CCC1C2C=C(C2=CC(=O)C3C(C12C)C3)Cl)C(=O)C,C24H29ClO4,"InChI=1S/C24H29ClO4/c1-12(26)24(29-13(2)27)8-6-16-14-10-20(25)19-11-21(28)15-9-18(15)23(19,4)17(14)5-7-22(16,24)3/h10-11,14-18H,5-9H2,1-4H3",416.93766,-4.96879891013,-2.1224880339,2.8463108762300005,7.793893301513051
000002915,NCCSSCCN,C4H12N2S2,InChI=1S/C4H12N2S2/c5-1-3-7-8-4-2-6/h1-6H2,152.28148,-6.10623480522,-0.28027726601500014,5.825957539205,0.16548500780735395
000002916,NCCSP(=O)(O)O,C2H8NO3PS,"InChI=1S/C2H8NO3PS/c3-1-2-8-7(4,5)6/h1-3H2,(H2,4,5,6)",157.128581,-6.397396625255,0.03809593906999975,6.435492564325,3.8446949794237253
000002919,CC1CCCC(O)C=CC(=O)OC23C(C=CC1)C(O)C(=C)C(C3C(NC2=O)Cc1ccccc1)C,C29H37NO5,"InChI=1S/C29H37NO5/c1-18-9-7-13-22(31)15-16-25(32)35-29-23(14-8-10-18)27(33)20(3)19(2)26(29)24(30-28(29)34)17-21-11-5-4-6-12-21/h4-6,8,11-12,14-16,18-19,22-24,26-27,31,33H,3,7,9-10,13,17H2,1-2H3,(H,30,34)",479.60778,-6.364742963195,-1.1292724795749995,5.23547048362,3.300509920974333
000002920,O=C1OC=CC(C)(O)C(=O)C(CC=CC2C3(O1)C(=O)NC(C3C(C)C1(C2O1)C)Cc1ccccc1)C,C28H33NO7,"InChI=1S/C28H33NO7/c1-16-9-8-12-19-23-27(4,35-23)17(2)21-20(15-18-10-6-5-7-11-18)29-24(31)28(19,21)36-25(32)34-14-13-26(3,33)22(16)30/h5-8,10-14,16-17,19-21,23,33H,9,15H2,1-4H3,(H,29,31)",495.56412,-6.16065757532,-0.7183805653200004,5.44227701,5.324618964626295
000002921,CC(=O)OC1C=CC(C)(O)CC(CC=CC2C31C(=O)NC(C3C(C)C(=C)C2O)Cc1ccccc1)C,C30H39NO5,"InChI=1S/C30H39NO5/c1-18-10-9-13-23-27(33)20(3)19(2)26-24(16-22-11-7-6-8-12-22)31-28(34)30(23,26)25(36-21(4)32)14-15-29(5,35)17-18/h6-9,11-15,18-19,23-27,33,35H,3,10,16-17H2,1-2,4-5H3,(H,31,34)",493.63436,-5.75792907658,-0.3727959751850003,5.385133101395,4.260755660566445
000002927,OC(=O)C(CCCCP(=O)(O)O)N,C6H14NO5P,"InChI=1S/C6H14NO5P/c7-5(6(8)9)3-1-2-4-13(10,11)12/h5H,1-4,7H2,(H,8,9)(H2,10,11,12)",211.152821,-6.73753893838,0.1251723712299997,6.86271130961,3.6780686517826173
000002929,Clc1ccc(cc1)Cn1cc(c2c1cccc2)C(=O)C(=O)Nc1ccncc1,C22H16ClN3O2,"InChI=1S/C22H16ClN3O2/c23-16-7-5-15(6-8-16)13-26-14-19(18-3-1-2-4-20(18)26)21(27)22(28)25-17-9-11-24-12-10-17/h1-12,14H,13H2,(H,24,25,28)",389.83434,-6.10079252821,-2.0898343718400003,4.01095815637,4.973420854914552
000002930,ONC(=O)NC(C(=O)O)Cc1ccccc1,C10H12N2O4,"InChI=1S/C10H12N2O4/c13-9(14)8(11-10(15)12-16)6-7-4-2-1-3-5-7/h1-5,8,16H,6H2,(H,13,14)(H2,11,12,15)",224.21328,-6.593318597615,-0.454430130335,6.13888846728,5.085482365090257
000002931,O=C1NOCC1NCc1c(cnc(c1O)C)COP(=O)(O)O,C11H16N3O7P,"InChI=1S/C11H16N3O7P/c1-6-10(15)8(3-13-9-5-20-14-11(9)16)7(2-12-6)4-21-22(17,18)19/h2,9,13,15H,3-5H2,1H3,(H,14,16)(H2,17,18,19)",333.234401,-6.010994957545001,-0.8136204129950002,5.197374544550001,2.9206212475249163
000002932,O=C(C(Cc1ccc(cc1)O)N)NC(C(=O)O)CCCN=C(N)N,C15H23N5O4,"InChI=1S/C15H23N5O4/c16-11(8-9-3-5-10(21)6-4-9)13(22)20-12(14(23)24)2-1-7-19-15(17)18/h3-6,11-12,21H,1-2,7-8,16H2,(H,20,22)(H,23,24)(H4,17,18,19)",337.37422,-5.75792907658,-0.2748349890049999,5.483094087575,0.8876183387548953
000002933,OC(C(C(=O)O)O)Cn1cnc2c1ncnc2N,C9H11N5O4,"InChI=1S/C9H11N5O4/c10-7-5-8(12-2-11-7)14(3-13-5)1-4(15)6(16)9(17)18/h2-4,6,15-16H,1H2,(H,17,18)(H2,10,11,12)",253.21474,-5.89942827884,-0.6884480417649996,5.210980237075001,1.4909868507284025
000002934,CCCCCCCCCCCCCC(=O)NC(C(c1ccccc1)O)C,C23H39NO2,"InChI=1S/C23H39NO2/c1-3-4-5-6-7-8-9-10-11-12-16-19-22(25)24-20(2)23(26)21-17-14-13-15-18-21/h13-15,17-18,20,23,26H,3-12,16,19H2,1-2H3,(H,24,25)",361.56126,-6.38379093273,-0.08435529365500027,6.299435639075,2.3748411770916387