mol_id,SMILES,formula,inchi,mass,HOMO(eV),LUMO(eV),GAP(eV),dipole_moment
000004527,OCC1C(O)C(O)C(c2n1nnn2)O,C6H10N4O4,"InChI=1S/C6H10N4O4/c11-1-2-3(12)4(13)5(14)6-7-8-9-10(2)6/h2-5,11-14H,1H2",202.168,-7.360679656025001,-1.13199361808,6.228686037945001,5.719127589250742
000004528,CN1CC(c2ccccc2)c2c(C1)c(N)ccc2,C16H18N2,"InChI=1S/C16H18N2/c1-18-10-14(12-6-3-2-4-7-12)13-8-5-9-16(17)15(13)11-18/h2-9,14H,10-11,17H2,1H3",238.32752,-5.3062200847500005,0.054422770100000406,5.360642854850001,1.7205033694151837
000004532,ON=C(C=C(C([N+](=O)[O-])C)CC)CNC(=O)c1cccnc1,C14H18N4O4,"InChI=1S/C14H18N4O4/c1-3-11(10(2)18(21)22)7-13(17-20)9-16-14(19)12-5-4-6-15-8-12/h4-8,10,20H,3,9H2,1-2H3,(H,16,19)",306.31712,-6.726654384360001,-1.9347294770549999,4.791924907305001,3.4294356158595543
000004534,CC(C(Cc1ccc(c(c1)O)O)C)Cc1ccc(c(c1)O)O,C18H22O4,"InChI=1S/C18H22O4/c1-11(7-13-3-5-15(19)17(21)9-13)12(2)8-14-4-6-16(20)18(22)10-14/h3-6,9-12,19-22H,7-8H2,1-2H3",302.36488,-5.352479439335,0.21769108039999985,5.570170519735,4.0690267465876895
000004535,CNCCC=C1c2ccccc2OCc2c1cccc2,C18H19NO,"InChI=1S/C18H19NO/c1-19-12-6-10-16-15-8-3-2-7-14(15)13-20-18-11-5-4-9-17(16)18/h2-5,7-11,19H,6,12-13H2,1H3",265.34956,-5.52391116515,-0.6911691802700002,4.83274198488,1.8865985411605195
000004536,C#CC1(O)CCC2C1(C)CCC1C2CCC2=CC(=O)CCC12,C20H26O2,"InChI=1S/C20H26O2/c1-3-20(22)11-9-18-17-6-4-13-12-14(21)5-7-15(13)16(17)8-10-19(18,20)2/h1,12,15-18,22H,4-11H2,2H3",298.41924,-6.19875351439,-1.118387925555,5.080365588835,4.5522978954831155
000004537,C#CC1(O)CCC2C1(C)CCC1C2CCC2=C1CCC(=O)C2,C20H26O2,"InChI=1S/C20H26O2/c1-3-20(22)11-9-18-17-6-4-13-12-14(21)5-7-15(13)16(17)8-10-19(18,20)2/h1,16-18,22H,4-12H2,2H3",298.41924,-6.076302281665,-0.31293092807499967,5.76337135359,3.705573026405093
000004538,NCC(c1cccc(c1)O)O,C8H11NO2,"InChI=1S/C8H11NO2/c9-5-8(11)6-2-1-3-7(10)4-6/h1-4,8,10-11H,5,9H2",153.17844,-5.8694957552850004,0.021769108039999985,5.891264863325,2.0342307933693267
000004539,CCn1cc(C(=O)O)c(=O)c2c1cc(N1CCNCC1)c(c2)F,C16H18FN3O3,"InChI=1S/C16H18FN3O3/c1-2-19-9-11(16(22)23)15(21)10-7-12(17)14(8-13(10)19)20-5-3-18-4-6-20/h7-9,18H,2-6H2,1H3,(H,22,23)",319.3308232,-5.972899018475,-1.6054717179500004,4.367427300525,10.575875942078982
000004540,O=C1CN=C(c2c(N1)ccc(c2)Cl)c1ccccc1F,C15H10ClFN2O,"InChI=1S/C15H10ClFN2O/c16-9-5-6-13-11(7-9)15(18-8-14(20)19-13)10-3-1-2-4-12(10)17/h1-7H,8H2,(H,19,20)",288.7041032,-6.261339700005,-1.6326831029999997,4.628656597005,2.724023318470494
000004541,NCCC(c1ccccc1)Oc1ccc(cc1)C(F)(F)F,C16H16F3NO,"InChI=1S/C16H16F3NO/c17-16(18,19)13-6-8-14(9-7-13)21-15(10-11-20)12-4-2-1-3-5-12/h1-9,15H,10-11,20H2",295.2995496,-6.29127222356,-0.5387854239900003,5.75248679957,4.786704563916704
000004542,C#CC1(O)CCC2C1(CC)CCC1C2CCC2=CC(=O)CCC12,C21H28O2,"InChI=1S/C21H28O2/c1-3-20-11-9-17-16-8-6-15(22)13-14(16)5-7-18(17)19(20)10-12-21(20,23)4-2/h2,13,16-19,23H,3,5-12H2,1H3",312.44582,-6.17698440635,-1.1020610945250002,5.074923311825,5.0135692559993625
000004543,CNCCC=C1c2ccccc2CCc2c1cccc2,C19H21N,"InChI=1S/C19H21N/c1-20-14-6-11-19-17-9-4-2-7-15(17)12-13-16-8-3-5-10-18(16)19/h2-5,7-11,20H,6,12-14H2,1H3",263.37674,-5.92663966389,-0.4408244378099999,5.48581522608,0.8239758724058611
000004544,COc1ccc2c(c1OC)C(=O)OC2C1N(C)CCc2c1c(OC)c1c(c2)OCO1,C22H23NO7,"InChI=1S/C22H23NO7/c1-23-8-7-11-9-14-20(29-10-28-14)21(27-4)15(11)17(23)18-12-5-6-13(25-2)19(26-3)16(12)22(24)30-18/h5-6,9,17-18H,7-8,10H2,1-4H3",413.42052,-5.385133101395,-1.0367537704050003,4.348379330989999,5.289858943911737
000004547,CCOc1cc(ccc1C(=O)O)CC(=O)NC(c1ccccc1N1CCCCC1)CC(C)C,C27H36N2O4,"InChI=1S/C27H36N2O4/c1-4-33-25-17-20(12-13-22(25)27(31)32)18-26(30)28-23(16-19(2)3)21-10-6-7-11-24(21)29-14-8-5-9-15-29/h6-7,10-13,17,19,23H,4-5,8-9,14-16,18H2,1-3H3,(H,28,30)(H,31,32)",452.58574,-5.34975830083,-1.3877806375499997,3.96197766328,6.872313773373055
000004548,CCCCCCCCCCCCC(=O)N1CCCCC1CNC(=O)C(CCCCN)N,C25H50N4O2,"InChI=1S/C25H50N4O2/c1-2-3-4-5-6-7-8-9-10-11-18-24(30)29-20-15-13-16-22(29)21-28-25(31)23(27)17-12-14-19-26/h22-23H,2-21,26-27H2,1H3,(H,28,31)",438.6901,-5.891264863325,0.33197889761,6.223243760935,6.667662341269165
000004549,OC(=O)c1cc(ccc1NCCCc1ccccc1)[N+](=O)[O-],C16H16N2O4,"InChI=1S/C16H16N2O4/c19-16(20)14-11-13(18(21)22)8-9-15(14)17-10-4-7-12-5-2-1-3-6-12/h1-3,5-6,8-9,11,17H,4,7,10H2,(H,19,20)",300.30924,-6.22052262243,-2.1388148649299996,4.0817077575,6.92378492238176
000004550,O=NC1=c2cc(N(O)O)c3c(c2=NC1=O)CCCC3,C12H11N3O4,"InChI=1S/C12H11N3O4/c16-12-11(14-17)8-5-9(15(18)19)6-3-1-2-4-7(6)10(8)13-12/h5,18-19H,1-4H2",261.23344,-5.559285965715,-4.002794740855,1.5564912248600002,9.74056547101096
000004552,Oc1ccc(cc1n1c(=O)[nH]c2c1ccc(c2)C(F)(F)F)C(F)(F)F,C15H8F6N2O2,"InChI=1S/C15H8F6N2O2/c16-14(17,18)7-1-3-10-9(5-7)22-13(25)23(10)11-6-8(15(19,20)21)2-4-12(11)24/h1-6,24H,(H,22,25)",362.2266392,-6.386512071235,-1.3251944519350003,5.0613176193,2.6646654049559393
000004553,[O-][N+](=O)c1ccc(c(c1)OC1CCCCC1)NS(=O)(=O)C,C13H18N2O5S,"InChI=1S/C13H18N2O5S/c1-21(18,19)14-12-8-7-10(15(16)17)9-13(12)20-11-5-3-2-4-6-11/h7-9,11,14H,2-6H2,1H3",314.35742,-6.185147821865,-2.092555510345,4.09259231152,6.088400308735374
000004556,CC(=CCOc1c(CC=C(C)C)c(=O)[nH]c2c1cccc2)C,C19H23NO2,"InChI=1S/C19H23NO2/c1-13(2)9-10-16-18(22-12-11-14(3)4)15-7-5-6-8-17(15)20-19(16)21/h5-9,11H,10,12H2,1-4H3,(H,20,21)",297.39142,-5.62731442834,-1.0558017399399997,4.5715126884,3.3272124733934563
000004557,CCCCCCCC(C=CC#CC#CC(C=C)O)O,C17H24O2,"InChI=1S/C17H24O2/c1-3-5-6-7-11-14-17(19)15-12-9-8-10-13-16(18)4-2/h4,12,15-19H,2-3,5-7,11,14H2,1H3",260.37126,-6.04636975811,-1.2734928203399996,4.77287693777,0.8872765703403872
000004558,CCCCCCCCC=CCCCCCCCC1(O)CC(=O)C=CC1O,C23H40O3,"InChI=1S/C23H40O3/c1-2-3-4-5-6-7-8-9-10-11-12-13-14-15-16-19-23(26)20-21(24)17-18-22(23)25/h9-10,17-18,22,25-26H,2-8,11-16,19-20H2,1H3",364.5619,-6.32936816263,-1.537443255325,4.791924907305,2.295893377485549
000004562,CC(=CCCC(=CCCC(=CCc1cc(O)ccc1O)C)C)CCC=C(CCC=C(C)C)C,C31H46O2,"InChI=1S/C31H46O2/c1-24(2)11-7-12-25(3)13-8-14-26(4)15-9-16-27(5)17-10-18-28(6)19-20-29-23-30(32)21-22-31(29)33/h11,13,15,17,19,21-23,32-33H,7-10,12,14,16,18,20H2,1-6H3",450.69574,-5.18648999053,0.04898049309000019,5.23547048362,2.490892124911073
000004564,Nc1nc(OCC2CCCCC2)c2c(n1)nc[nH]2,C12H17N5O,"InChI=1S/C12H17N5O/c13-12-16-10-9(14-7-15-10)11(17-12)18-6-8-4-2-1-3-5-8/h7-8H,1-6H2,(H3,13,14,15,16,17)",247.29628,-5.417786763455,-0.6966114572800004,4.721175306175,5.022331663638813
000004565,Clc1cccc(c1)Nc1nc(OCC2CCCCC2)c2c(n1)nc[nH]2,C18H20ClN5O,"InChI=1S/C18H20ClN5O/c19-13-7-4-8-14(9-13)22-18-23-16-15(20-11-21-16)17(24-18)25-10-12-5-2-1-3-6-12/h4,7-9,11-12H,1-3,5-6,10H2,(H2,20,21,22,23,24)",357.8373,-5.39329651691,-1.0367537704050003,4.356542746504999,6.933614698350709
000004566,NS(=O)(=O)c1ccc(cc1)Nc1nc(OCC2CCCCC2)c2c(n1)nc[nH]2,C18H22N6O3S,"InChI=1S/C18H22N6O3S/c19-28(25,26)14-8-6-13(7-9-14)22-18-23-16-15(20-11-21-16)17(24-18)27-10-12-4-2-1-3-5-12/h6-9,11-12H,1-5,10H2,(H2,19,25,26)(H2,20,21,22,23,24)",402.47068,-5.64364125937,-1.1864163881799996,4.45722487119,10.920600167005567
000004567,CC(NC(C(c1ccc(cc1)O)O)C)CCc1ccccc1,C19H25NO2,"InChI=1S/C19H25NO2/c1-14(8-9-16-6-4-3-5-7-16)20-15(2)19(22)17-10-12-18(21)13-11-17/h3-7,10-15,19-22H,8-9H2,1-2H3",299.4073,-5.83412095472,-0.09523984767499982,5.7388811070450005,1.7086987798140432
000004570,[O-][N+](=O)c1cc(ccc1NCCOP(=O)(OP(=O)(O)O)O)[N+](=O)[O-],C8H11N3O11P2,"InChI=1S/C8H11N3O11P2/c12-10(13)6-1-2-7(8(5-6)11(14)15)9-3-4-21-24(19,20)22-23(16,17)18/h1-2,5,9H,3-4H2,(H,19,20)(H2,16,17,18)",387.133962,-6.696721860805001,-3.061280818125,3.6354410426800006,3.0416440941232756
000004572,[O-][N+](=O)c1cc(ccc1NCCCOP(=O)(OP(=O)(O)O)O)[N+](=O)[O-],C9H13N3O11P2,"InChI=1S/C9H13N3O11P2/c13-11(14)7-2-3-8(9(6-7)12(15)16)10-4-1-5-22-25(20,21)23-24(17,18)19/h2-3,6,10H,1,4-5H2,(H,20,21)(H2,17,18,19)",401.160542,-6.7130486918350005,-2.772840136595,3.9402085552400004,5.4133262940256985
000004573,NC(C(=O)O)COCc1ccccc1,C10H13NO3,"InChI=1S/C10H13NO3/c11-9(10(12)13)7-14-6-8-4-2-1-3-5-8/h1-5,9H,6-7,11H2,(H,12,13)",195.21512,-6.606924290139999,-0.4625935458499999,6.1443307442899995,4.466496888287956
000004574,NC(C(=O)O)Cc1ccc(cc1)OC(=O)OCc1ccccc1,C17H17NO5,"InChI=1S/C17H17NO5/c18-15(16(19)20)10-12-6-8-14(9-7-12)23-17(21)22-11-13-4-2-1-3-5-13/h1-9,15H,10-11,18H2,(H,19,20)",315.32058,-6.49263647293,-0.6367464101699998,5.85589006276,4.681715761053846
000004577,[O-][N+](=O)c1ccccc1NCCOP(=O)(OP(=O)(O)O)O,C8H12N2O9P2,"InChI=1S/C8H12N2O9P2/c11-10(12)8-4-2-1-3-7(8)9-5-6-18-21(16,17)19-20(13,14)15/h1-4,9H,5-6H2,(H,16,17)(H2,13,14,15)",342.136402,-5.798746154155,-2.016363632205,3.7823825219500002,7.157627025223094
000004578,Nc1nc(OCc2ccccc2)c2c(n1)nc[nH]2,C12H11N5O,"InChI=1S/C12H11N5O/c13-12-16-10-9(14-7-15-10)11(17-12)18-6-8-4-2-1-3-5-8/h1-5,7H,6H2,(H3,13,14,15,16,17)",241.24864,-5.43683473299,-0.7238228423299997,4.713011890660001,4.997453025131302
000004579,CCCCCCCCCCCCCCCCCCc1ccc(cc1)C(=O)C=CC(=O)O,C28H44O3,"InChI=1S/C28H44O3/c1-2-3-4-5-6-7-8-9-10-11-12-13-14-15-16-17-18-25-19-21-26(22-20-25)27(29)23-24-28(30)31/h19-24H,2-18H2,1H3,(H,30,31)",428.64716,-6.8872015561549995,-1.7360863661900003,5.151115189964999,3.949497356546653
000004580,CC1OC(=O)c2c(C1)c(Cl)cc(c2O)C(=O)NC(C(=O)O)Cc1ccccc1,C20H18ClNO6,"InChI=1S/C20H18ClNO6/c1-10-7-12-14(21)9-13(17(23)16(12)20(27)28-10)18(24)22-15(19(25)26)8-11-5-3-2-4-6-11/h2-6,9-10,15,23H,7-8H2,1H3,(H,22,24)(H,25,26)",403.81302,-6.685837306785,-1.97010427762,4.715733029165,6.528889007468728
000004581,NCC(c1ccc(cc1)O)O,C8H11NO2,"InChI=1S/C8H11NO2/c9-5-8(11)6-1-3-7(10)4-2-6/h1-4,8,10-11H,5,9H2",153.17844,-5.79602501565,-0.05170163159499985,5.744323384055,1.9357206671878049
000004583,CN1CCN(CC1)c1c(F)cc2c3c1OCC(n3cc(c2=O)C(=O)O)C,C18H20FN3O4,"InChI=1S/C18H20FN3O4/c1-10-9-26-17-14-11(16(23)12(18(24)25)8-22(10)14)7-13(19)15(17)21-5-3-20(2)4-6-21/h7-8,10H,3-6,9H2,1-2H3,(H,24,25)",361.3675032,-5.71983313751,-1.651731072535,4.068102064975,9.409023592197759
000004585,CN1CCN(CC1)C1=c2cc(sc2=Nc2c(N1)cccc2)C,C17H20N4S,"InChI=1S/C17H20N4S/c1-12-11-13-16(21-9-7-20(2)8-10-21)18-14-5-3-4-6-15(14)19-17(13)22-12/h3-6,11,18H,7-10H2,1-2H3",312.4325,-4.481715117735001,-1.5428855323350001,2.9388295854000006,5.01324783270576
000004588,CCCCCCCCC=CCCCCCCCC(=O)C(F)(F)F,C19H33F3O,"InChI=1S/C19H33F3O/c1-2-3-4-5-6-7-8-9-10-11-12-13-14-15-16-17-18(23)19(20,21)22/h9-10H,2-8,11-17H2,1H3",334.4599296,-6.348416132165,-1.5320009783149997,4.81641515385,3.196047668096801
000004589,CCCCCCCCC=CCCCCCCCCOCCOP(=O)(OCC[N+](C)(C)C)[O-],C25H52NO5P,"InChI=1S/C25H52NO5P/c1-5-6-7-8-9-10-11-12-13-14-15-16-17-18-19-20-22-29-24-25-31-32(27,28)30-23-21-26(2,3)4/h12-13H,5-11,14-25H2,1-4H3",477.657841,-5.64364125937,0.6013716096049997,6.2450128689749995,14.05961570076807
000004592,OCCNc1nc(NCc2ccccc2)c2c(n1)n(C)cn2,C15H18N6O,"InChI=1S/C15H18N6O/c1-21-10-18-12-13(17-9-11-5-3-2-4-6-11)19-15(16-7-8-22)20-14(12)21/h2-6,10,22H,7-9H2,1H3,(H2,16,17,19,20)",298.34302,-5.129346081925,-0.4435455763149996,4.6858005056100005,2.3471816737187177
000004593,N#Cc1cc(c([nH]c1=O)C)c1ccc2n(c1)ccn2,C14H10N4O,"InChI=1S/C14H10N4O/c1-9-12(6-11(7-15)14(19)17-9)10-2-3-13-16-4-5-18(13)8-10/h2-6,8H,1H3,(H,17,19)",250.2554,-6.103513666715,-2.21500674307,3.888506923645,6.965379351609573
000004594,COc1ccc2c(c1)[nH]c(n2)S(=O)Cc1ncc(c(c1C)OC)C,C17H19N3O3S,"InChI=1S/C17H19N3O3S/c1-10-8-18-15(11(2)16(10)23-4)9-24(21)17-19-13-6-5-12(22-3)7-14(13)20-17/h5-8H,9H2,1-4H3,(H,19,20)",345.41606,-5.526632303655,-0.9415139227300005,4.585118380925,1.7548345713690507
000004595,O=C1C(CCc2c1c1ccccc1n2C)Cn1ccnc1C,C18H19N3O,"InChI=1S/C18H19N3O/c1-12-19-9-10-21(12)11-13-7-8-16-17(18(13)22)14-5-3-4-6-15(14)20(16)2/h3-6,9-10,13H,7-8,11H2,1-2H3",293.36296,-5.56744938123,-1.0694074324649998,4.4980419487650005,6.847272257345184
000004596,O=C(Cn1c(ncc(c1=O)N)c1ccccc1)NC(C(c1nnc(o1)C(C)(C)C)O)C(C)C,C23H30N6O4,"InChI=1S/C23H30N6O4/c1-13(2)17(18(31)20-27-28-22(33-20)23(3,4)5)26-16(30)12-29-19(14-9-7-6-8-10-14)25-11-15(24)21(29)32/h6-11,13,17-18,31H,12,24H2,1-5H3,(H,26,30)",454.5221,-5.6599680904,-1.1075033715349996,4.552464718865,3.171328514043602
000004597,OC1C(OC(C(C1O)O)C)Oc1ccccc1[N+](=O)[O-],C12H15NO7,"InChI=1S/C12H15NO7/c1-6-9(14)10(15)11(16)12(19-6)20-8-5-3-2-4-7(8)13(17)18/h2-6,9-12,14-16H,1H3",285.25,-6.77019260044,-2.36739049935,4.40280210109,4.348665919493587
000004598,O=CC1=CCC2C(CC3C1C(=O)CC3(C)O)(C)CCC12OC(CC1C)C=C(C)C,C25H36O4,"InChI=1S/C25H36O4/c1-15(2)10-18-11-16(3)25(29-18)9-8-23(4)12-19-22(20(27)13-24(19,5)28)17(14-26)6-7-21(23)25/h6,10,14,16,18-19,21-22,28H,7-9,11-13H2,1-5H3",400.55094,-6.051812035119999,-1.6571733495450003,4.394638685574999,2.417775282596379
000004599,CCCCCCCCCCCC(CC1OC(=O)C1CCCCCC)OC(=O)C(CC(C)C)NC=O,C29H53NO5,"InChI=1S/C29H53NO5/c1-5-7-9-11-12-13-14-15-16-18-24(34-29(33)26(30-22-31)20-23(3)4)21-27-25(28(32)35-27)19-17-10-8-6-2/h22-27H,5-21H2,1-4H3,(H,30,31)",495.73482,-6.993325957850001,-0.25034474246000027,6.74298121539,1.660391640715226
000004600,CCCCC(CC(C=CC1C(O)CC(=O)C1CC(=O)CCCCC(=O)OC)O)C,C23H38O6,"InChI=1S/C23H38O6/c1-4-5-8-16(2)13-18(25)11-12-19-20(22(27)15-21(19)26)14-17(24)9-6-7-10-23(28)29-3/h11-12,16,18-21,25-26H,4-10,13-15H2,1-3H3",410.54422,-6.560664935555001,-1.03947490891,5.521190026645001,2.24907231368002
000004601,CN(CCOC(c1ccccc1C)c1ccccc1)C,C18H23NO,"InChI=1S/C18H23NO/c1-15-9-7-8-12-17(15)18(20-14-13-19(2)3)16-10-5-4-6-11-16/h4-12,18H,13-14H2,1-3H3",269.38132,-5.820515262195,-0.19864311086500042,5.62187215133,0.7844344769787979
000004602,Oc1ccc(cc1)NC(=O)c1ccccc1O,C13H11NO3,"InChI=1S/C13H11NO3/c15-10-7-5-9(6-8-10)14-13(17)11-3-1-2-4-12(11)16/h1-8,15-16H,(H,14,17)",229.23134,-5.156557466975,-1.0367537704050003,4.11980369657,3.8612539370620267
000004603,CCOC(=O)C1=CC(C(C(C1)N)NC(=O)C)OC(CC)CC,C16H28N2O4,"InChI=1S/C16H28N2O4/c1-5-12(6-2)22-14-9-11(16(20)21-7-3)8-13(17)15(14)18-10(4)19/h9,12-15H,5-8,17H2,1-4H3,(H,18,19)",312.40452,-5.866774616780001,-1.0476383244249998,4.819136292355001,5.591467236708805
000004604,O=c1[nH]c(=O)[nH]c(n1)C(=O)O,C4H3N3O4,"InChI=1S/C4H3N3O4/c8-2(9)1-5-3(10)7-4(11)6-1/h(H,8,9)(H2,5,6,7,10,11)",157.08432,-8.1089927449,-2.98781007849,5.12118266641,0.5469990501088644
000004608,OC(=O)C1N2C(=O)C(C2SC1(C)C)NC(=O)c1c(C)onc1c1ccccc1,C19H19N3O5S,"InChI=1S/C19H19N3O5S/c1-9-11(12(21-27-9)10-7-5-4-6-8-10)15(23)20-13-16(24)22-14(18(25)26)19(2,3)28-17(13)22/h4-8,13-14,17H,1-3H3,(H,20,23)(H,25,26)",401.43626,-6.65046250622,-1.2870985128650005,5.363363993355,4.732790481970336
000004610,NC1CCCCC1N,C6H14N2,"InChI=1S/C6H14N2/c7-5-3-1-2-4-6(5)8/h5-6H,1-4,7-8H2",114.18876,-5.95385104894,1.74697092021,7.70082196915,2.25769123791142
000004611,ONC(=O)C=CC#Cc1cccc(c1)NS(=O)(=O)c1ccccc1,C17H14N2O4S,"InChI=1S/C17H14N2O4S/c20-17(18-21)12-5-4-7-14-8-6-9-15(13-14)19-24(22,23)16-10-2-1-3-11-16/h1-3,5-6,8-13,19,21H,(H,18,20)",342.36906,-6.038206342595,-2.13337258792,3.9048337546750003,4.091421023847216
000004612,OCc1cc2CCC(Nc2cc1[N+](=O)[O-])CNC(C)C,C14H21N3O3,"InChI=1S/C14H21N3O3/c1-9(2)15-7-12-4-3-10-5-11(8-18)14(17(19)20)6-13(10)16-12/h5-6,9,12,15-16,18H,3-4,7-8H2,1-2H3",279.33484,-5.51846888814,-2.1224880339,3.3959808542400003,7.928253580761971
000004614,OC(=O)CCc1nc(c(o1)c1ccccc1)c1ccccc1,C18H15NO3,"InChI=1S/C18H15NO3/c20-16(21)12-11-15-19-17(13-7-3-1-4-8-13)18(22-15)14-9-5-2-6-10-14/h1-10H,11-12H2,(H,20,21)",293.3166,-5.662689228905,-1.2680505433300002,4.394638685575,4.072568731718226
000004615,O=c1[nH]c2c(n1CCCN1CCN(CC1)C(c1ccccc1)c1ccccc1)cccc2,C27H30N4O,"InChI=1S/C27H30N4O/c32-27-28-24-14-7-8-15-25(24)31(27)17-9-16-29-18-20-30(21-19-29)26(22-10-3-1-4-11-22)23-12-5-2-6-13-23/h1-8,10-15,26H,9,16-21H2,(H,28,32)",426.5533,-5.368806270365,-0.3510268671450003,5.01777940322,2.638849792309142
000004616,O=C1Nc2ccc(cc2C(=NC1O)c1ccccc1)Cl,C15H11ClN2O2,"InChI=1S/C15H11ClN2O2/c16-10-6-7-12-11(8-10)13(9-4-2-1-3-5-9)18-15(20)14(19)17-12/h1-8,15,20H,(H,17,19)",286.71304,-6.370185240205,-1.7306440891800001,4.639541151025,3.7586840001678774
000004617,O=C1CN2CC(OC2(c2c(N1)ccc(c2)Cl)c1ccccc1)C,C18H17ClN2O2,"InChI=1S/C18H17ClN2O2/c1-12-10-21-11-17(22)20-16-8-7-14(19)9-15(16)18(21,23-12)13-5-3-2-4-6-13/h2-9,12H,10-11H2,1H3,(H,20,22)",328.79278,-6.06813886615,-0.829947244025,5.238191622125,2.9043835360967742
000004618,CCS(=O)CCSP(=O)(OC)OC,C6H15O4PS2,"InChI=1S/C6H15O4PS2/c1-4-13(8)6-5-12-11(7,9-2)10-3/h4-6H2,1-3H3",246.284661,-6.000110403525,0.046259354584999635,6.04636975811,4.309712737635885
000004619,CCN(CCOCCOC(=O)C(c1ccccc1)(CC)CC)CC,C20H33NO3,"InChI=1S/C20H33NO3/c1-5-20(6-2,18-12-10-9-11-13-18)19(22)24-17-16-23-15-14-21(7-3)8-4/h9-13H,5-8,14-17H2,1-4H3",335.48092,-5.64908353638,-0.18231627983499976,5.466767256545,1.4705050298594697
000004620,CCC1CC2C(C1O)(C)CCC1C2CCC2=CC(=O)CCC12,C20H30O2,"InChI=1S/C20H30O2/c1-3-12-11-18-17-6-4-13-10-14(21)5-7-15(13)16(17)8-9-20(18,2)19(12)22/h10,12,15-19,22H,3-9,11H2,1-2H3",302.451,-6.2232437609349995,-1.1510415876150004,5.072202173319999,4.02621901234235
000004621,OCCN(CC(=O)N(C(Cc1ccccc1)(C)C)C)CC(=O)N(C(Cc1ccccc1)(C)C)C,C28H41N3O3,"InChI=1S/C28H41N3O3/c1-27(2,19-23-13-9-7-10-14-23)29(5)25(33)21-31(17-18-32)22-26(34)30(6)28(3,4)20-24-15-11-8-12-16-24/h7-16,32H,17-22H2,1-6H3",467.64344,-5.853168924255001,-0.1714317258150002,5.6817371984400005,3.7960742960449285
000004622,CCCOc1ccc2c(c1)[nH]c(n2)NC(=O)OC,C12H15N3O3,"InChI=1S/C12H15N3O3/c1-3-6-18-8-4-5-9-10(7-8)14-11(13-9)15-12(16)17-2/h4-5,7H,3,6H2,1-2H3,(H2,13,14,15,16)",249.2658,-4.998731433685,-0.22313335741000007,4.775598076275,3.7319780659197344
000004623,Clc1ccc(c(c1)Cl)CON=C(c1ccc(cc1Cl)Cl)Cn1cncc1,C18H13Cl4N3O,"InChI=1S/C18H13Cl4N3O/c19-13-2-1-12(16(21)7-13)10-26-24-18(9-25-6-5-23-11-25)15-4-3-14(20)8-17(15)22/h1-8,11H,9-10H2",429.12732,-6.13344619027,-1.3088676209049996,4.824578569365,2.1934094883762585
000004624,NCCc1cc(O)c(cc1O)O,C8H11NO3,"InChI=1S/C8H11NO3/c9-2-1-5-3-7(11)8(12)4-6(5)10/h3-4,10-12H,1-2,9H2",169.17784,-4.83274198488,0.3183732050849999,5.151115189965,2.0781840224592716
000004625,O=C1Nc2c(C1=Cc1[nH]ccc1)cccc2,C13H10N2O,"InChI=1S/C13H10N2O/c16-13-11(8-9-4-3-7-14-9)10-5-1-2-6-12(10)15-13/h1-8,14H,(H,15,16)",210.2313,-5.221864791094999,-1.8204416598450002,3.401423131249999,0.5776054712665037
000004626,NC(=O)CN1CC(CC1=O)O,C6H10N2O3,"InChI=1S/C6H10N2O3/c7-5(10)3-8-2-4(9)1-6(8)11/h4,9H,1-3H2,(H2,7,10)",158.1552,-6.451819395355001,0.03809593906999975,6.4899153344250005,1.9253450714770586
000004628,CCn1cc(C(=O)O)c(=O)c2c1cc1OCOc1c2,C13H11NO5,"InChI=1S/C13H11NO5/c1-2-14-5-8(13(16)17)12(15)7-3-10-11(4-9(7)14)19-6-18-10/h3-5H,2,6H2,1H3,(H,16,17)",261.23014,-6.03548520409,-1.5483278093449995,4.487157394745001,9.924924288369256
000004630,O=C1CCCN1CC#CCN1CCCC1,C12H18N2O,"InChI=1S/C12H18N2O/c15-12-6-5-11-14(12)10-4-3-9-13-7-1-2-8-13/h1-2,5-11H2",206.28412,-5.831399816215,0.5523911165149995,6.383790932729999,3.132917761945564
000004631,C=CCOc1ccccc1OCC(CNC(C)C)O,C15H23NO3,"InChI=1S/C15H23NO3/c1-4-9-18-14-7-5-6-8-15(14)19-11-13(17)10-16-12(2)3/h4-8,12-13,16-17H,1,9-11H2,2-3H3",265.34802,-5.461324979535,-0.06258618561500029,5.39873879392,3.1889750135008894
000004632,COc1ccc(c(c1)O)C(=O)c1ccccc1,C14H12O3,"InChI=1S/C14H12O3/c1-17-11-7-8-12(13(15)9-11)14(16)10-5-3-2-4-6-10/h2-9,15H,1H3",228.24328,-5.891264863325,-1.1646472801399996,4.726617583185001,6.028126835111385
000004633,CCCCOc1cc(ccc1N)C(=O)OCCN(CC)CC,C17H28N2O3,"InChI=1S/C17H28N2O3/c1-4-7-11-21-16-13-14(8-9-15(16)18)17(20)22-12-10-19(5-2)6-3/h8-9,13H,4-7,10-12,18H2,1-3H3",308.41582,-5.314383500265,-0.6666789337250005,4.64770456654,3.9348299973838765
000004634,CCN(CC#CCOC(=O)C(c1ccccc1)(C1CCCCC1)O)CC,C22H31NO3,"InChI=1S/C22H31NO3/c1-3-23(4-2)17-11-12-18-26-21(24)22(25,19-13-7-5-8-14-19)20-15-9-6-10-16-20/h5,7-8,13-14,20,25H,3-4,6,9-10,15-18H2,1-2H3",357.48644,-5.80146729266,-0.21769108039999985,5.58377621226,1.743995447070892
000004635,COc1ccc2c3c1OC1C43CCN(C(C2)C4(O)CCC1=O)C,C18H21NO4,"InChI=1S/C18H21NO4/c1-19-8-7-17-14-10-3-4-12(22-2)15(14)23-16(17)11(20)5-6-18(17,21)13(19)9-10/h3-4,13,16,21H,5-9H2,1-2H3",315.36364,-5.6164298743200005,-0.5687179475450002,5.047711926775,3.2515448066697465