mol_id,SMILES,formula,inchi,mass,HOMO(eV),LUMO(eV),GAP(eV),dipole_moment
000005796,CCOCCOCCOC(Oc1ccc2c(c1)OCO2)C,C15H22O6,"InChI=1S/C15H22O6/c1-3-16-6-7-17-8-9-18-12(2)21-13-4-5-14-15(10-13)20-11-19-14/h4-5,10,12H,3,6-9,11H2,1-2H3",298.33158,-4.868116785445,0.34830572863999976,5.216422514085,3.583944641592696
000005798,c1ccc2c(c1)[nH]cn2,C7H6N2,"InChI=1S/C7H6N2/c1-2-4-7-6(3-1)8-5-9-7/h1-5H,(H,8,9)",118.13594,-6.070860004655,-0.4625935458499999,5.608266458805,3.3793488644178185
000005799,C1CN1c1nc(nc(n1)N1CC1)N1CC1,C9H12N6,InChI=1S/C9H12N6/c1-2-13(1)7-10-8(14-3-4-14)12-9(11-7)15-5-6-15/h1-6H2,204.23178,-6.413723456285,-0.541506562495,5.87221689379,1.3894929623466972
000005800,Nc1ccccc1O.Cl,C6H8ClNO,"InChI=1S/C6H7NO.ClH/c7-5-3-1-2-4-6(5)8;/h1-4,8H,7H2;1H",145.58682,-6.141609605785001,-0.32109434359000044,5.820515262195,5.785635308482726
000005801,Nc1ccccc1O,C6H7NO,"InChI=1S/C6H7NO/c7-5-3-1-2-4-6(5)8/h1-4,8H,7H2",109.12588,-5.118461527905,0.36191142116499986,5.4803729490699995,1.44028907271596
000005805,CC(NCC(c1ccc(c(c1)Cl)Cl)O)C.Cl,C11H16Cl3NO,"InChI=1S/C11H15Cl2NO.ClH/c1-7(2)14-6-11(15)8-3-4-9(12)10(13)5-8;/h3-5,7,11,14-15H,6H2,1-2H3;1H",284.60984,-6.430050287315001,-0.6313041331599996,5.798746154155001,3.7080815544268977
000005806,CC(NCC(c1ccc(c(c1)Cl)Cl)O)C,C11H15Cl2NO,"InChI=1S/C11H15Cl2NO/c1-7(2)14-6-11(15)8-3-4-9(12)10(13)5-8/h3-5,7,11,14-15H,6H2,1-2H3",248.1489,-6.217801483925,-0.5224585929599996,5.695342890965001,3.6401887622190694
000005807,CC(NCC(c1ccc(c(c1)O)O)O)C.Cl,C11H18ClNO3,"InChI=1S/C11H17NO3.ClH/c1-7(2)12-6-11(15)8-3-4-9(13)10(14)5-8;/h3-5,7,11-15H,6H2,1-2H3;1H",247.71852,-5.804188431165,-0.2966040970449999,5.50758433412,1.1562546068742818
000005808,CC(NC[C@H](c1ccc(c(c1)O)O)O)C,C11H17NO3,"InChI=1S/C11H17NO3/c1-7(2)12-6-11(15)8-3-4-9(13)10(14)5-8/h3-5,7,11-15H,6H2,1-2H3/t11-/m1/s1",211.25758,-5.488536364585,0.16054717179499978,5.64908353638,2.3975873092016897
000005809,OCC(c1ccccc1)C(=O)OC1C[C@@H]2N([C@@H](C1)[C@H]1[C@@H]2O1)C,C17H21NO4,"InChI=1S/C17H21NO4/c1-18-13-7-11(8-14(18)16-15(13)22-16)21-17(20)12(9-19)10-5-3-2-4-6-10/h2-6,11-16,19H,7-9H2,1H3/t11?,12?,13-,14-,15-,16+/m0/s1",303.35294,-6.00827381904,-0.35374800565,5.65452581339,3.468018212371584
000005810,O[C@H]1CN[C@@H](C1)C(=O)O,C5H9NO3,"InChI=1S/C5H9NO3/c7-3-1-4(5(8)9)6-2-3/h3-4,6-7H,1-2H2,(H,8,9)/t3-,4+/m1/s1",131.12986,-6.710327553330001,0.20408538787499975,6.914412941205001,4.1749398926941454
000005811,OC(=O)c1cc(Cl)cc(c1)Cl,C7H4Cl2O2,"InChI=1S/C7H4Cl2O2/c8-5-1-4(7(10)11)2-6(9)3-5/h1-3H,(H,10,11)",191.01146,-7.314420301439999,-1.5918660254250003,5.722554276014999,3.36931470986312
000005812,OC(=O)c1cc(Cl)c(c(c1)Cl)Cl,C7H3Cl3O2,"InChI=1S/C7H3Cl3O2/c8-4-1-3(7(11)12)2-5(9)6(4)10/h1-2H,(H,11,12)",225.45652,-7.374285348550001,-1.7279229506750005,5.646362397875,2.831577124398345
000005814,NC[C@H](c1ccc(c(c1)O)O)O,C8H11NO3,"InChI=1S/C8H11NO3/c9-4-8(12)5-1-2-6(10)7(11)3-5/h1-3,8,10-12H,4,9H2/t8-/m1/s1",169.17784,-5.532074580665,0.09796098618000038,5.630035566845001,3.1957954003161717
000005815,OC(=O)[C@@H]([C@H](C(=O)O)O)O.CNC[C@@H](c1ccc(c(c1)O)O)O,C13H19NO9,"InChI=1S/C9H13NO3.C4H6O6/c1-10-5-9(13)6-2-3-7(11)8(12)4-6;5-1(3(7)8)2(6)4(9)10/h2-4,9-13H,5H2,1H3;1-2,5-6H,(H,7,8)(H,9,10)/t9-;1-,2-/m01/s1",333.29126,-5.232749345115,-0.7755244739249996,4.45722487119,7.481586129004731
000005816,CNC[C@@H](c1ccc(c(c1)O)O)O,C9H13NO3,"InChI=1S/C9H13NO3/c1-10-5-9(13)6-2-3-7(11)8(12)4-6/h2-4,9-13H,5H2,1H3/t9-/m0/s1",183.20442,-5.434113594485,0.21496994189500018,5.64908353638,2.480954727175407
000005817,OC(=O)c1ccc(c(c1)Cl)Cl,C7H4Cl2O2,"InChI=1S/C7H4Cl2O2/c8-5-2-1-4(7(10)11)3-6(5)9/h1-3H,(H,10,11)",191.01146,-7.197411345725,-1.5102318702749997,5.687179475450001,3.6383434140960365
000005820,ClCCN(Cc1ccccc1)Cc1ccccc1,C16H18ClN,"InChI=1S/C16H18ClN/c17-11-12-18(13-15-7-3-1-4-8-15)14-16-9-5-2-6-10-16/h1-10H,11-14H2",259.77382,-6.217801483925,-0.28571954302500036,5.9320819409,2.4559313461599452
000005822,O=C(Nc1ccc(cc1)[N+](=O)[O-])N=C(N)N.Cl,C8H10ClN5O3,"InChI=1S/C8H9N5O3.ClH/c9-7(10)12-8(14)11-5-1-3-6(4-2-5)13(15)16;/h1-4H,(H5,9,10,11,12,14);1H",259.6497,-6.430050287315001,-2.119766895395,4.3102833919200005,9.641453735390426
000005823,O=C(Nc1ccc(cc1)[N+](=O)[O-])N=C(N)N,C8H9N5O3,"InChI=1S/C8H9N5O3/c9-7(10)12-8(14)11-5-1-3-6(4-2-5)13(15)16/h1-4H,(H5,9,10,11,12,14)",223.18876,-6.185147821865,-1.918402646025,4.26674517584,10.52094238231286
000005824,O=C(N(C)C)Oc1cccc(c1)[N+](C)(C)C.COS(=O)(=O)[O-],C13H22N2O6S,"InChI=1S/C12H19N2O2.CH4O4S/c1-13(2)12(15)16-11-8-6-7-10(9-11)14(3,4)5;1-5-6(2,3)4/h6-9H,1-5H3;1H3,(H,2,3,4)/q+1;/p-1",334.38858,-6.10623480522,-0.8680431830949997,5.238191622125,10.593153590543942
000005826,C[C@@H](Cc1ccccc1)N,C9H13N,"InChI=1S/C9H13N/c1-8(10)7-9-5-3-2-4-6-9/h2-6,8H,7,10H2,1H3/t8-/m0/s1",135.20622,-6.08990797419,0.05714390860500007,6.147051882795,1.2493425498357125
000005827,COc1ccc(cc1)NC(=O)C,C9H11NO2,"InChI=1S/C9H11NO2/c1-7(11)10-8-3-5-9(12-2)6-4-8/h3-6H,1-2H3,(H,10,11)",165.18914,-5.265403007175,-0.027211385050000203,5.238191622125,4.342519157078066
000005828,Nc1ccc(cc1)O.Cl,C6H8ClNO,"InChI=1S/C6H7NO.ClH/c7-5-1-3-6(8)4-2-5;/h1-4,8H,7H2;1H",145.58682,-5.352479439335,-0.30748865106500034,5.04499078827,3.9953177607806114
000005829,CN(CN(C)C)C,C5H14N2,"InChI=1S/C5H14N2/c1-6(2)5-7(3)4/h5H2,1-4H3",102.17806,-5.752486799570001,2.3129677292500013,8.065454528820002,0.8290254508264507
000005830,CN(CSC(=S)N(C)C)C,C6H14N2S2,"InChI=1S/C6H14N2S2/c1-7(2)5-10-6(9)8(3)4/h5H2,1-4H3",178.31876,-5.325268054285001,-0.3428634516300004,4.982404602655,2.759468350415891
000005832,C#C[C@@]1(CC[C@@H]2[C@]1(C)CC[C@H]1[C@H]2CCC2=CC(=O)CC[C@H]12)OC(=O)C,C22H28O3,"InChI=1S/C22H28O3/c1-4-22(25-14(2)23)12-10-20-19-7-5-15-13-16(24)6-8-17(15)18(19)9-11-21(20,22)3/h1,13,17-20H,5-12H2,2-3H3/t17-,18+,19+,20-,21-,22-/m0/s1",340.45592,-6.228686037945,-1.096618817515,5.13206722043,4.2244050319552695
000005833,CC(=O)S[C@@H]1CC2=CC(=O)CC[C@@]2([C@@H]2[C@@H]1[C@@H]1CC[C@]3([C@]1(CC2)C)CCC(=O)O3)C,C24H32O4S,"InChI=1S/C24H32O4S/c1-14(25)29-19-13-15-12-16(26)4-8-22(15,2)17-5-9-23(3)18(21(17)19)6-10-24(23)11-7-20(27)28-24/h12,17-19,21H,4-11,13H2,1-3H3/t17-,18-,19+,21+,22-,23-,24+/m0/s1",416.57348,-6.31848360861,-1.205464357715,5.113019250895,2.2406027020926755
000005834,CC(=O)OCC(=O)[C@@]1(O)CC[C@@H]2[C@]1(C)C[C@H](O)[C@H]1[C@H]2CCC2=CC(=O)C=C[C@]12C,C23H30O6,"InChI=1S/C23H30O6/c1-13(24)29-12-19(27)23(28)9-7-17-16-5-4-14-10-15(25)6-8-21(14,2)20(16)18(26)11-22(17,23)3/h6,8,10,16-18,20,26,28H,4-5,7,9,11-12H2,1-3H3/t16-,17-,18-,20+,21-,22-,23-/m0/s1",402.4807,-6.168820990835,-1.21907005024,4.949750940595,8.144176357092594
000005838,CCC1(C2=CCCCC2)C(=O)NC(=O)NC1=O,C12H16N2O3,"InChI=1S/C12H16N2O3/c1-2-12(8-6-4-3-5-7-8)9(15)13-11(17)14-10(12)16/h6H,2-5,7H2,1H3,(H2,13,14,15,16,17)",236.26704,-6.615087705655,-1.2027432192100003,5.412344486445,1.5948081901197397
000005839,OCC(=O)[C@H]1CC[C@@H]2[C@]1(C=O)C[C@H](O)[C@H]1[C@H]2CCC2=CC(=O)CC[C@]12C,C21H28O5,"InChI=1S/C21H28O5/c1-20-7-6-13(24)8-12(20)2-3-14-15-4-5-16(18(26)10-22)21(15,11-23)9-17(25)19(14)20/h8,11,14-17,19,22,25H,2-7,9-10H2,1H3/t14-,15-,16+,17-,19+,20-,21+/m0/s1",360.44402,-6.1143982207350005,-1.4694147927000003,4.644983428035,7.02506672778309
000005842,C=CCC1(CC=C)C(=O)NC(=O)NC1=O,C10H12N2O3,"InChI=1S/C10H12N2O3/c1-3-5-10(6-4-2)7(13)11-9(15)12-8(10)14/h3-4H,1-2,5-6H2,(H2,11,12,13,14,15)",208.21388,-7.061354420475,-1.24083915828,5.820515262195,0.7004022027592431
000005843,O=C1NC(=O)NC(=O)C21CCCCC2,C9H12N2O3,"InChI=1S/C9H12N2O3/c12-6-9(4-2-1-3-5-9)7(13)11-8(14)10-6/h1-5H2,(H2,10,11,12,13,14)",196.20318,-7.262718669845001,-1.1700895571499998,6.092629112695001,1.1903012451161261
000005845,C1CN1P1(=NP(=NP(=N1)(N1CC1)N1CC1)(N1CC1)N1CC1)N1CC1,C12H24N9P3,"InChI=1S/C12H24N9P3/c1-2-16(1)22(17-3-4-17)13-23(18-5-6-18,19-7-8-19)15-24(14-22,20-9-10-20)21-11-12-21/h1-12H2",387.300543,-5.640920120865,1.1211090640599997,6.762029184925,0.8029258517827159
000005851,OC([C@H](C(=O)O)O)C(=O)O,C4H6O6,"InChI=1S/C4H6O6/c5-1(3(7)8)2(6)4(9)10/h1-2,5-6H,(H,7,8)(H,9,10)/t1-,2?/m1/s1",150.08684,-7.649120337555001,-0.7074960113,6.941624326255001,5.463406633089925
000005852,N[C@H](C(S)(C)C)C(=O)O,C5H11NO2S,"InChI=1S/C5H11NO2S/c1-5(2,9)3(6)4(7)8/h3,9H,6H2,1-2H3,(H,7,8)/t3-/m0/s1",149.21134,-6.6695104757550006,0.0,6.6695104757550006,2.2553202719618337
000005853,COP(=O)(C(C(Cl)(Cl)Cl)O)OC,C4H8Cl3O4P,"InChI=1S/C4H8Cl3O4P/c1-10-12(9,11-2)3(8)4(5,6)7/h3,8H,1-2H3",257.436681,-7.58653415194,-0.9605618922649999,6.625972259675,3.1807978763709586
000005854,O[C@H]1C[C@@H]2CC[C@@H]3[C@@H]([C@]2(C[C@@H]1N1CCOCC1)C)CC[C@]1([C@H]3CCC1=O)C,C23H37NO3,"InChI=1S/C23H37NO3/c1-22-8-7-18-16(17(22)5-6-21(22)26)4-3-15-13-20(25)19(14-23(15,18)2)24-9-11-27-12-10-24/h15-20,25H,3-14H2,1-2H3/t15-,16-,17-,18-,19-,20-,22-,23-/m0/s1",375.54478,-6.03004292708,-0.31293092807499967,5.7171119990050006,2.254154036828229
000005856,C#C[C@]1(O)CC2C(C1)(C)CCC1C2CCC2C1(C)C[C@@](C2)(O)C#C,C22H30O2,"InChI=1S/C22H30O2/c1-5-21(23)11-15-7-8-16-17(20(15,4)14-21)9-10-19(3)13-22(24,6-2)12-18(16)19/h1-2,15-18,23-24H,7-14H2,3-4H3/t15?,16?,17?,18?,19?,20?,21-,22+/m1/s1",326.4724,-6.917134079709999,0.8489952135600003,7.76612929327,1.905568963683288
000005858,CC[C@]1(O)CC[C@@H]2[C@]1(C)CC[C@H]1[C@H]2CCC2=CC(=O)CC[C@H]12,C20H30O2,"InChI=1S/C20H30O2/c1-3-20(22)11-9-18-17-6-4-13-12-14(21)5-7-15(13)16(17)8-10-19(18,20)2/h12,15-18,22H,3-11H2,1-2H3/t15-,16+,17+,18-,19-,20-/m0/s1",302.451,-6.217801483925,-1.0857342634949996,5.132067220430001,4.169917044688779
000005859,COP(=S)(Oc1ccc(cc1)S(=O)(=O)N(C)C)OC,C10H16NO5PS2,"InChI=1S/C10H16NO5PS2/c1-11(2)19(12,13)10-7-5-9(6-8-10)16-17(18,14-3)15-4/h5-8H,1-4H3",325.341501,-6.762029184925,-1.2381180197749995,5.52391116515,4.650125363402045
000005860,[O-][N+](=O)[O-].OCC(c1ccccc1)C(=O)OC1CC2CCC(C1)[N+]2(C)C,C18H26N2O6,"InChI=1S/C18H26NO3.NO3/c1-19(2)14-8-9-15(19)11-16(10-14)22-18(21)17(12-20)13-6-4-3-5-7-13;2-1(3)4/h3-7,14-17,20H,8-12H2,1-2H3;/q+1;-1",366.40884,-5.07220217332,-0.8054569974800003,4.26674517584,11.163577310032345
000005862,N[C@H](C(=O)O)CS,C3H7NO2S,"InChI=1S/C3H7NO2S/c4-2(1-7)3(5)6/h2,7H,1,4H2,(H,5,6)/t2-/m0/s1",121.15818,-6.813730816520001,0.005442277010000218,6.819173093530001,3.611530266572883
000005866,OCC(=O)[C@@]1(O)CC[C@@H]2[C@]1(C)CC(=O)[C@H]1[C@H]2CC[C@H]2[C@]1(C)CC[C@H](C2)O,C21H32O5,"InChI=1S/C21H32O5/c1-19-7-5-13(23)9-12(19)3-4-14-15-6-8-21(26,17(25)11-22)20(15,2)10-16(24)18(14)19/h12-15,18,22-23,26H,3-11H2,1-2H3/t12-,13-,14+,15+,18-,19+,20+,21+/m1/s1",364.47578,-6.3674641017,-0.9442350612350001,5.423229040465,3.6192924535600874
000005867,OCC(=O)[C@@]1(O)CC[C@@H]2[C@]1(C)CC(=O)[C@H]1[C@H]2CCC2=C[C@@H](CC[C@]12C)O,C21H30O5,"InChI=1S/C21H30O5/c1-19-7-5-13(23)9-12(19)3-4-14-15-6-8-21(26,17(25)11-22)20(15,2)10-16(24)18(14)19/h9,13-15,18,22-23,26H,3-8,10-11H2,1-2H3/t13-,14+,15+,18-,19+,20+,21+/m1/s1",362.4599,-6.35113727067,-0.8680431830949997,5.483094087575,3.536535719751322
000005870,Oc1ccc2c(c1)CC[C@@H]1[C@@H]2CC[C@]2([C@H]1CCC2=O)C,C18H22O2,"InChI=1S/C18H22O2/c1-18-9-8-14-13-5-3-12(19)10-11(13)2-4-15(14)16(18)6-7-17(18)20/h3,5,10,14-16,19H,2,4,6-9H2,1H3/t14-,15-,16+,18+/m1/s1",270.36608,-5.695342890965001,-0.2966040970449999,5.398738793920001,2.0995123532046676
000005873,CC(N(C(=O)c1ccco1)c1ccccc1)CN1CCC(CC1)(O)c1ccccc1.Cl,C25H29ClN2O3,"InChI=1S/C25H28N2O3.ClH/c1-20(19-26-16-14-25(29,15-17-26)21-9-4-2-5-10-21)27(22-11-6-3-7-12-22)24(28)23-13-8-18-30-23;/h2-13,18,20,29H,14-17,19H2,1H3;1H",440.96236,-5.684458336945,-0.8217838285100001,4.862674508435,6.429999156745357
000005874,CC(N(C(=O)c1ccco1)c1ccccc1)CN1CCC(CC1)(O)c1ccccc1,C25H28N2O3,"InChI=1S/C25H28N2O3/c1-20(19-26-16-14-25(29,15-17-26)21-9-4-2-5-10-21)27(22-11-6-3-7-12-22)24(28)23-13-8-18-30-23/h2-13,18,20,29H,14-17,19H2,1H3",404.50142,-5.61098759731,-0.8544374905699996,4.756550106740001,3.572855217670316
000005879,O[C@@H]1CC[C@]2([C@H](C1)CC[C@@H]1[C@@H]2CC[C@]2([C@H]1CCC2=O)C)C,C19H30O2,"InChI=1S/C19H30O2/c1-18-9-7-13(20)11-12(18)3-4-14-15-5-6-17(21)19(15,2)10-8-16(14)18/h12-16,20H,3-11H2,1-2H3/t12-,13+,14-,15-,16-,18-,19-/m0/s1",290.4403,-6.185147821865,-0.27211385050000025,5.9130339713649995,1.9863346903621253
000005882,O=C1CC[C@@H]2[C@]1(C)CC[C@H]1[C@H]2CCc2c1cccc2,C18H22O,"InChI=1S/C18H22O/c1-18-11-10-14-13-5-3-2-4-12(13)6-7-15(14)16(18)8-9-17(18)19/h2-5,14-16H,6-11H2,1H3/t14-,15-,16+,18+/m1/s1",254.36668,-6.239570591965,-0.3156520665800002,5.923918525385,2.679418829535614
000005887,CN(CCCN1c2ccccc2Sc2c1cccc2)C.Cl,C17H21ClN2S,"InChI=1S/C17H20N2S.ClH/c1-18(2)12-7-13-19-14-8-3-5-10-16(14)20-17-11-6-4-9-15(17)19;/h3-6,8-11H,7,12-13H2,1-2H3;1H",320.88004,-4.7946460458099995,-0.6666789337250005,4.127967112084999,2.145728492532315
000005888,Oc1ccc2c(c1)CC[C@@H]1[C@@H]2CC[C@]2([C@H]1CCC2)C,C18H24O,"InChI=1S/C18H24O/c1-18-9-2-3-17(18)16-6-4-12-11-13(19)5-7-14(12)15(16)8-10-18/h5,7,11,15-17,19H,2-4,6,8-10H2,1H3/t15-,16-,17+,18+/m1/s1",256.38256,-5.570170519735,0.05714390860500007,5.62731442834,1.106959026628357
000005889,c1ccc2c(c1)c1cc3ccc4c(c3cc1cc2)cccc4,C22H14,InChI=1S/C22H14/c1-3-7-19-15(5-1)9-11-17-14-22-18(13-21(17)19)12-10-16-6-2-4-8-20(16)22/h1-14H,278.34656,-5.423229040465,-1.44220340765,3.981025632815,2.15870331449229e-05
000005891,OC[C@H]1O[C@H]([C@@H]([C@@H]1NC(=O)[C@@H](Cc1ccc(cc1)OC)N)O)n1cnc2c1ncnc2N(C)C,C22H29N7O5,"InChI=1S/C22H29N7O5/c1-28(2)19-17-20(25-10-24-19)29(11-26-17)22-18(31)16(15(9-30)34-22)27-21(32)14(23)8-12-4-6-13(33-3)7-5-12/h4-7,10-11,14-16,18,22,30-31H,8-9,23H2,1-3H3,(H,27,32)/t14-,15-,16-,18-,22-/m1/s1",471.50956,-5.521190026645,-0.8680431830949997,4.65314684355,3.2216122109572716
000005894,OC[C@H]1O[C@H]([C@@H]([C@@H]1O)O)n1cnc2c1cc(Cl)c(c2)Cl,C12H12Cl2N2O4,"InChI=1S/C12H12Cl2N2O4/c13-5-1-7-8(2-6(5)14)16(4-15-7)12-11(19)10(18)9(3-17)20-12/h1-2,4,9-12,17-19H,3H2/t9-,10-,11-,12-/m1/s1",319.14068,-6.310320193095,-1.1510415876149995,5.159278605480001,5.255804377782814
000005895,ONc1ccc2c(c1)Cc1c2cccc1,C13H11NO,"InChI=1S/C13H11NO/c15-14-11-5-6-13-10(8-11)7-9-3-1-2-4-12(9)13/h1-6,8,14-15H,7H2",197.23254,-5.25179731465,-0.5523911165150004,4.699406198135,0.9476069972736588
000005896,CC(=O)N(c1ccc2c(c1)Cc1c2cccc1)O,C15H13NO2,"InChI=1S/C15H13NO2/c1-10(17)16(18)13-6-7-15-12(9-13)8-11-4-2-3-5-14(11)15/h2-7,9,18H,8H2,1H3",239.26922,-5.40418107093,-0.7265439808350003,4.677637090095,2.7159920627153906
000005897,CC(=O)Nc1ccc2c(c1)Cc1c2cccc1,C15H13NO,"InChI=1S/C15H13NO/c1-10(17)16-13-6-7-15-12(9-13)8-11-4-2-3-5-14(11)15/h2-7,9H,8H2,1H3,(H,16,17)",223.26982,-5.311662361760001,-0.7183805653200004,4.59328179644,3.023609473310004
000005898,OC1CN(C2=CC(=O)C(=O)C=C12)C,C9H9NO3,"InChI=1S/C9H9NO3/c1-10-4-9(13)5-2-7(11)8(12)3-6(5)10/h2-3,9,13H,4H2,1H3",179.17266,-6.13344619027,-2.870801122775,3.262645067495,7.546679143799609
000005899,O=c1[nH]c(=O)[nH]cc1C(F)(F)F,C5H3F3N2O2,"InChI=1S/C5H3F3N2O2/c6-5(7,8)2-1-9-4(12)10-3(2)11/h1H,(H2,9,10,11,12)",180.0847296,-7.4205447031350005,-1.9646620006099997,5.455882702525001,4.14910945431595
000005901,OC[C@H]1O[C@H]([C@@H]([C@@H]1O)O)n1ncc(=O)[nH]c1=O,C8H11N3O6,"InChI=1S/C8H11N3O6/c12-2-3-5(14)6(15)7(17-3)11-8(16)10-4(13)1-9-11/h1,3,5-7,12,14-15H,2H2,(H,10,13,16)/t3-,5-,6-,7-/m1/s1",245.18944,-7.001489373365,-2.32929456028,4.6721948130849995,2.198269848984196
000005902,CCN(CCNC(c1ccccc1)C(=O)OCCC(C)C)CC,C19H32N2O2,"InChI=1S/C19H32N2O2/c1-5-21(6-2)14-13-20-18(17-10-8-7-9-11-17)19(22)23-15-12-16(3)4/h7-11,16,18,20H,5-6,12-15H2,1-4H3",320.46958,-5.68717947545,-0.20408538787499975,5.483094087575,2.5251359166741896
000005904,O=C(Cc1ccccc1)N[C@@H]1C(=O)N2[C@@H]1SC([C@@H]2C(=O)O)(C)C,C16H18N2O4S,"InChI=1S/C16H18N2O4S/c1-16(2)12(15(21)22)18-13(20)11(14(18)23-16)17-10(19)8-9-6-4-3-5-7-9/h3-7,11-12,14H,8H2,1-2H3,(H,17,19)(H,21,22)/t11-,12+,14-/m1/s1",334.39012,-6.6559047832300005,-0.8898122911349997,5.766092492095001,3.9595497657017775
000005906,C[C@@H]([C@@H](c1cccc(c1)O)O)N,C9H13NO2,"InChI=1S/C9H13NO2/c1-6(10)9(12)7-3-2-4-8(11)5-7/h2-6,9,11-12H,10H2,1H3/t6-,9-/m0/s1",167.20502,-5.722554276015,0.1578260332900001,5.880380309305,2.503800691615449
000005907,CCN(CCN(C(=O)N(C(C)C)C(C)C)CCC(C)C)CC,C18H39N3O,"InChI=1S/C18H39N3O/c1-9-19(10-2)13-14-20(12-11-15(3)4)18(22)21(16(5)6)17(7)8/h15-17H,9-14H2,1-8H3",313.52176,-5.71983313751,0.8544374905699996,6.57427062808,2.352666309816375
000005909,CC[C@@H]1C(=O)OC[C@@H]1Cc1cncn1C.Cl,C11H17ClN2O2,"InChI=1S/C11H16N2O2.ClH/c1-3-10-8(6-15-11(10)14)4-9-5-12-7-13(9)2;/h5,7-8,10H,3-4,6H2,1-2H3;1H/t8-,10-;/m0./s1",244.71788,-6.043648619605,-0.13333578674499957,5.910312832860001,1.0339433787384105
000005910,CC[C@@H]1C(=O)OC[C@@H]1Cc1cncn1C,C11H16N2O2,"InChI=1S/C11H16N2O2/c1-3-10-8(6-15-11(10)14)4-9-5-12-7-13(9)2/h5,7-8,10H,3-4,6H2,1-2H3/t8-,10-/m0/s1",208.25694,-5.978341295485,0.10068212468500004,6.07902342017,1.6075649125957558
000005912,CN(CCCSc1ccccc1NC(=O)C=Cc1ccccc1)C.Cl,C20H25ClN2OS,"InChI=1S/C20H24N2OS.ClH/c1-22(2)15-8-16-24-19-12-7-6-11-18(19)21-20(23)14-13-17-9-4-3-5-10-17;/h3-7,9-14H,8,15-16H2,1-2H3,(H,21,23);1H",376.9433,-5.87221689379,-1.6190774104749996,4.2531394833150005,4.554398400117627
000005913,CN(CCCSc1ccccc1NC(=O)C=Cc1ccccc1)C,C20H24N2OS,"InChI=1S/C20H24N2OS/c1-22(2)15-8-16-24-19-12-7-6-11-18(19)21-20(23)14-13-17-9-4-3-5-10-17/h3-7,9-14H,8,15-16H2,1-2H3,(H,21,23)",340.48236,-5.782419323125,-1.5183952857899996,4.264024037335,3.9925145386022076
000005916,Cc1cc(ccc1N=Nc1ccccc1)N(C)C,C15H17N3,"InChI=1S/C15H17N3/c1-12-11-14(18(2)3)9-10-15(12)17-16-13-7-5-4-6-8-13/h4-11H,1-3H3",239.31558,-5.216422514085,-1.673500180575,3.54292233351,3.179393134766759
000005917,C1CCn2c(CC1)nnn2,C6H10N4,InChI=1S/C6H10N4/c1-2-4-6-7-8-9-10(6)5-3-1/h1-5H2,138.1704,-7.328025993964999,-0.42449760678000015,6.903528387184999,6.751275542140241
000005918,Nc1cnccc1N,C5H7N3,"InChI=1S/C5H7N3/c6-4-1-2-8-3-5(4)7/h1-3H,7H2,(H2,6,8)",109.12918,-5.56200710422,0.027211385050000203,5.58921848927,3.5134233012317204
000005921,CCN(N=O)CC,C4H10N2O,"InChI=1S/C4H10N2O/c1-3-6(4-2)5-7/h3-4H2,1-2H3",102.135,-5.7143908605,-0.45987240734500023,5.254518453155,4.132156058522233
000005922,OC(=O)c1ccncc1,C6H5NO2,"InChI=1S/C6H5NO2/c8-6(9)5-1-3-7-4-2-5/h1-4H,(H,8,9)",123.1094,-7.32530485546,-1.5700969173850003,5.755207938074999,2.9175765984215394
000005923,NCC(c1ccc(c(c1)O)O)O.Cl,C8H12ClNO3,"InChI=1S/C8H11NO3.ClH/c9-4-8(12)5-1-2-6(10)7(11)3-5;/h1-3,8,10-12H,4,9H2;1H",205.63878,-5.994668126515,-0.31020978957,5.684458336945,4.3506172172897495
000005924,CNCC(c1ccc(c(c1)O)O)O.Cl,C9H14ClNO3,"InChI=1S/C9H13NO3.ClH/c1-10-5-9(13)6-2-3-7(11)8(12)4-6;/h2-4,9-13H,5H2,1H3;1H",219.66536,-5.55656482721,0.07074960113000017,5.62731442834,2.0510226603889583
000005925,ClCCN(Cc1ccccc1)Cc1ccccc1.Cl,C16H19Cl2N,"InChI=1S/C16H18ClN.ClH/c17-11-12-18(13-15-7-3-1-4-8-15)14-16-9-5-2-6-10-16;/h1-10H,11-14H2;1H",296.23476,-6.39467548675,-0.4353821607999997,5.95929332595,3.689971108208979
000005928,ClCCN(Cc1ccccc1)CCCl,C11H15Cl2N,"InChI=1S/C11H15Cl2N/c12-6-8-14(9-7-13)10-11-4-2-1-3-5-11/h1-5H,6-10H2",232.1495,-6.468146226385,-0.33470003611499966,6.13344619027,2.54214079849268
000005929,NNC(Cc1ccccc1)C,C9H14N2,"InChI=1S/C9H14N2/c1-8(11-10)7-9-5-3-2-4-6-9/h2-6,8,11H,7,10H2,1H3",150.22086,-4.802809461324999,0.040817077575000305,4.8436265389,0.3249021412210144
000005930,OS(=O)(=O)O.CNc1ccc(cc1)O.CNc1ccc(cc1)O,C14H20N2O6S,"InChI=1S/2C7H9NO.H2O4S/c2*1-8-6-2-4-7(9)5-3-6;1-5(2,3)4/h2*2-5,8-9H,1H3;(H2,1,2,3,4)",344.3834,-5.12118266641,-0.5877659170800005,4.53341674933,4.566320427087547
000005931,CNc1ccc(cc1)O,C7H9NO,"InChI=1S/C7H9NO/c1-8-6-2-4-7(9)5-3-6/h2-5,8-9H,1H3",123.15246,-4.85995336993,0.1034032631899997,4.96335663312,2.002795876633712
000005932,NC(=Nc1ccccc1)N=C(N)N.Cl,C8H12ClN5,"InChI=1S/C8H11N5.ClH/c9-7(10)13-8(11)12-6-4-2-1-3-5-6;/h1-5H,(H6,9,10,11,12,13);1H",213.66738,-5.58921848927,-0.6993325957850001,4.889885893485,5.214189578311667
000005934,Cc1cccc(c1)N=Nc1ccc(cc1)N(C)C,C15H17N3,"InChI=1S/C15H17N3/c1-12-5-4-6-14(11-12)17-16-13-7-9-15(10-8-13)18(2)3/h4-11H,1-3H3",239.31558,-5.265403007175,-1.6109139949600002,3.654489012215,3.124698940225442