mol_id,SMILES,formula,inchi,mass,HOMO(eV),LUMO(eV),GAP(eV),dipole_moment
000001196,OC(=O)C1CCC=N1,C5H7NO2,"InChI=1S/C5H7NO2/c7-5(8)4-2-1-3-6-4/h3-4H,1-2H2,(H,7,8)",113.11458,-7.246391838815,-0.7156594268149998,6.530732412,4.582717849595478
000001197,O=C(NC(C(=O)O)CCCC(C(=O)O)N)CCC(=O)O,C11H18N2O7,"InChI=1S/C11H18N2O7/c12-6(10(17)18)2-1-3-7(11(19)20)13-8(14)4-5-9(15)16/h6-7H,1-5,12H2,(H,13,14)(H,15,16)(H,17,18)(H,19,20)",290.26982,-6.19331123738,-0.9578407537600002,5.2354704836199994,8.090256702583607
000001198,OC(=O)CC(C(C(=O)O)O)C(=O)O,C6H8O7,"InChI=1S/C6H8O7/c7-3(8)1-2(5(10)11)4(9)6(12)13/h2,4,9H,1H2,(H,7,8)(H,10,11)(H,12,13)",192.12352,-7.812388647855001,-1.1646472801399996,6.6477413677150015,4.658598728122653
000001199,OC(=O)CN(S(=O)(=O)c1ccc(cc1)C)c1cccc(c1)Cl,C15H14ClNO4S,"InChI=1S/C15H14ClNO4S/c1-11-5-7-14(8-6-11)22(20,21)17(10-15(18)19)13-4-2-3-12(16)9-13/h2-9H,10H2,1H3,(H,18,19)",339.79396,-6.272224254025001,-1.7007115656250003,4.5715126884,4.766567999015643
000001201,CCCc1cc(=O)oc2c1c1OC(C)(C)C=Cc1c1c2C(O)C(C(O1)C)C,C22H26O5,"InChI=1S/C22H26O5/c1-6-7-13-10-15(23)26-21-16(13)20-14(8-9-22(4,5)27-20)19-17(21)18(24)11(2)12(3)25-19/h8-12,18,24H,6-7H2,1-5H3",370.43884,-5.417786763455,-1.3768960835300001,4.040890679925,5.981320884370776
000001202,CCCCCC(C=CC1CC2CC(C1CC=CCCCC(=O)O)C2)O,C22H36O3,"InChI=1S/C22H36O3/c1-2-3-6-9-20(23)13-12-18-14-17-15-19(16-17)21(18)10-7-4-5-8-11-22(24)25/h4,7,12-13,17-21,23H,2-3,5-6,8-11,14-16H2,1H3,(H,24,25)",348.51944,-6.419165733295,0.15510489478500045,6.574270628080001,3.8186074428060817
000001203,Oc1cc2OC(c3ccc(c(c3)O)O)C(Cc2c(c1)O)O,C15H14O6,"InChI=1S/C15H14O6/c16-8-4-11(18)9-6-13(20)15(21-14(9)5-8)7-1-2-10(17)12(19)3-7/h1-5,13,15-20H,6H2",290.26806,-5.368806270365,0.3156520665800002,5.684458336945,3.6029219009905002
000001204,Clc1ccc(cn1)C1CC2NC1CC2,C11H13ClN2,"InChI=1S/C11H13ClN2/c12-11-4-1-7(6-13-11)9-5-8-2-3-10(9)14-8/h1,4,6,8-10,14H,2-3,5H2",208.68732,-6.359300686185,-1.0231480778800002,5.3361526083049995,2.9614848719537634
000001205,CC1OC(=O)C2C1C(C=CC1CCCC(N1C)C)C1CCCCC1C2,C22H35NO2,"InChI=1S/C22H35NO2/c1-14-7-6-9-17(23(14)3)11-12-19-18-10-5-4-8-16(18)13-20-21(19)15(2)25-22(20)24/h11-12,14-21H,4-10,13H2,1-3H3",345.5188,-5.679016059935,0.1034032631899997,5.782419323125,5.41512349596535
000001206,CNC(Cc1ccccc1)C,C10H15N,"InChI=1S/C10H15N/c1-9(11-2)8-10-6-4-3-5-7-10/h3-7,9,11H,8H2,1-2H3",149.2328,-5.776977046114999,0.07074960113000017,5.847726647245,1.0257014948087968
000001207,CC12NC(c3c2cccc3)Cc2c1cccc2,C16H15N,"InChI=1S/C16H15N/c1-16-13-8-4-2-6-11(13)10-15(17-16)12-7-3-5-9-14(12)16/h2-9,15,17H,10H2,1H3",221.297,-5.839563231730001,-0.165989448805,5.673573782925001,1.0117588725432556
000001208,Oc1ccc2c(c1)C1(C)CCNC(C2)C1C,C14H19NO,"InChI=1S/C14H19NO/c1-9-13-7-10-3-4-11(16)8-12(10)14(9,2)5-6-15-13/h3-4,8-9,13,15-16H,5-7H2,1-2H3",217.30676,-5.45860384103,0.19864311086500042,5.657246951895001,2.4640673474842365
000001209,OC(=O)C(Cn1oc(=O)[nH]c1=O)N,C5H7N3O5,"InChI=1S/C5H7N3O5/c6-2(3(9)10)1-8-4(11)7-5(12)13-8/h2H,1,6H2,(H,9,10)(H,7,11,12)",189.12618,-6.976999126820001,-0.9605618922649999,6.016437234555001,3.132844061280102
000001212,OC(=O)C(c1ccc(cc1)c1nn[nH]n1)(N)C,C10H11N5O2,"InChI=1S/C10H11N5O2/c1-10(11,9(16)17)7-4-2-6(3-5-7)8-12-14-15-13-8/h2-5H,11H2,1H3,(H,16,17)(H,12,13,14,15)",233.22664,-6.533453550505,-1.5129530087799994,5.020500541725001,3.0149185245080834
000001213,CC1CCCC2(C1(O)CCCC2)C,C12H22O,"InChI=1S/C12H22O/c1-10-6-5-8-11(2)7-3-4-9-12(10,11)13/h10,13H,3-9H2,1-2H3",182.30248,-6.783798292965,1.6245196874850008,8.40831798045,1.4345783779055086
000001214,OC(=O)C1CC(C1)(N)C(=O)O,C6H9NO4,"InChI=1S/C6H9NO4/c7-6(5(10)11)1-3(2-6)4(8)9/h3H,1-2,7H2,(H,8,9)(H,10,11)",159.13996,-6.6912795837950005,-0.8163415514999999,5.874938032295001,6.354767346352815
000001215,CC(c1cccc(c1Cl)Cl)N,C8H9Cl2N,"InChI=1S/C8H9Cl2N/c1-5(11)6-3-2-4-7(9)8(6)10/h2-5H,11H2,1H3",190.06976,-6.479030780405,-0.5714390860499998,5.907591694355,2.842264873163302
000001216,OC(=O)C(CCCP(=O)(O)O)N,C5H12NO5P,"InChI=1S/C5H12NO5P/c6-4(5(7)8)2-1-3-12(9,10)11/h4H,1-3,6H2,(H,7,8)(H2,9,10,11)",197.126241,-6.756586907915,0.06802846262499962,6.824615370539999,2.8045253639277363
000001217,OC(=O)C(c1cccc(c1)O)N,C8H9NO3,"InChI=1S/C8H9NO3/c9-7(8(11)12)5-2-1-3-6(10)4-5/h1-4,7,10H,9H2,(H,11,12)",167.16196,-6.321204747115,-0.6122561636250001,5.70894858349,2.419905269944673
000001218,Oc1c(O)cc2c(c1Cl)CCNCC2c1ccccc1,C16H16ClNO2,"InChI=1S/C16H16ClNO2/c17-15-11-6-7-18-9-13(10-4-2-1-3-5-10)12(11)8-14(19)16(15)20/h1-5,8,13,18-20H,6-7,9H2",289.75674,-5.57833393525,-0.11156667870499959,5.466767256545,3.8878327019244283
000001219,CCCN(C1CCc2c(C1)cc(cc2)O)CCC,C16H25NO,"InChI=1S/C16H25NO/c1-3-9-17(10-4-2)15-7-5-13-6-8-16(18)12-14(13)11-15/h6,8,12,15,18H,3-5,7,9-11H2,1-2H3",247.3758,-5.526632303655,0.035374800565000086,5.56200710422,1.5416021236528574
000001220,CCCN(C1CCc2c(C1)c(O)ccc2)CCC,C16H25NO,"InChI=1S/C16H25NO/c1-3-10-17(11-4-2)14-9-8-13-6-5-7-16(18)15(13)12-14/h5-7,14,18H,3-4,8-12H2,1-2H3",247.3758,-5.632756705349999,0.20136424937000008,5.8341209547199995,2.426226536271088
000001221,OC(=O)C(Cc1c(C)o[nH]c1=O)N,C7H10N2O4,"InChI=1S/C7H10N2O4/c1-3-4(6(10)9-13-3)2-5(8)7(11)12/h5H,2,8H2,1H3,(H,9,10)(H,11,12)",186.1653,-6.457261672365,-1.276213958845,5.18104771352,4.138594523119775
000001222,OC(=O)c1ccc(cc1)C(C(=O)O)(N)C,C10H11NO4,"InChI=1S/C10H11NO4/c1-10(11,9(14)15)7-4-2-6(3-5-7)8(12)13/h2-5H,11H2,1H3,(H,12,13)(H,14,15)",209.19864,-6.9661145728000005,-1.2952619283800004,5.67085264442,7.40832311302821
000001224,OC1(CCN2C(C1)c1cccc3c1C(C2)c1ccccc1CC3)C(C)(C)C,C25H31NO,"InChI=1S/C25H31NO/c1-24(2,3)25(27)13-14-26-16-21-19-9-5-4-7-17(19)11-12-18-8-6-10-20(23(18)21)22(26)15-25/h4-10,21-22,27H,11-16H2,1-3H3",361.51974,-5.62187215133,-0.029932523554999868,5.591939627775,1.685326054663014
000001225,C=CCN1CCc2c(C(C1)c1ccccc1)cc(c(c2Cl)O)O,C19H20ClNO2,"InChI=1S/C19H20ClNO2/c1-2-9-21-10-8-14-15(11-17(22)19(23)18(14)20)16(12-21)13-6-4-3-5-7-13/h2-7,11,16,22-23H,1,8-10,12H2",329.8206,-5.5946607662800005,-0.14694147926999968,5.447719287010001,1.2173522214453794
000001226,OC(=O)C1NCCCC1C(=O)O,C7H11NO4,"InChI=1S/C7H11NO4/c9-6(10)4-2-1-3-8-5(4)7(11)12/h4-5,8H,1-3H2,(H,9,10)(H,11,12)",173.16654,-6.8001251239950005,-0.8136204129950002,5.986504711,6.519888427596441
000001227,O=C1CCC(N1C)c1ccccn1,C10H12N2O,"InChI=1S/C10H12N2O/c1-12-9(5-6-10(12)13)8-4-2-3-7-11-8/h2-4,7,9H,5-6H2,1H3",176.21508,-6.41100231778,-0.8571586290750002,5.553843688705,3.3519845996546582
000001228,OC(=O)C1NCCN(C1)CCCP(=O)(O)O,C8H17N2O5P,"InChI=1S/C8H17N2O5P/c11-8(12)7-6-10(4-2-9-7)3-1-5-16(13,14)15/h7,9H,1-6H2,(H,11,12)(H2,13,14,15)",252.204741,-6.55794379705,0.1795951413300001,6.73753893838,5.298347259674379
000001231,Clc1ccc(cc1)OCCCCCCC1(CO1)C(=O)O,C15H19ClO4,"InChI=1S/C15H19ClO4/c16-12-5-7-13(8-6-12)19-10-4-2-1-3-9-15(11-20-15)14(17)18/h5-8H,1-4,9-11H2,(H,17,18)",298.76196,-5.84500550874,-0.3183732050849999,5.526632303655,3.105926223872196
000001232,O=C1C(N)CCN1O,C4H8N2O2,"InChI=1S/C4H8N2O2/c5-3-1-2-6(8)4(3)7/h3,8H,1-2,5H2",116.11852,-6.27494539253,-0.41089191425500005,5.864053478275,3.8802475047144864
000001233,OC(=O)C(c1o[nH]c(=O)c1)N,C5H6N2O4,"InChI=1S/C5H6N2O4/c6-4(5(9)10)2-1-3(8)7-11-2/h1,4H,6H2,(H,7,8)(H,9,10)",158.11214,-7.077681251505,-1.4884627622349997,5.58921848927,2.1298223299031305
000001235,C=CCN1CCC2(C(C1Cc1c2cc(cc1)O)C)C,C17H23NO,"InChI=1S/C17H23NO/c1-4-8-18-9-7-17(3)12(2)16(18)10-13-5-6-14(19)11-15(13)17/h4-6,11-12,16,19H,1,7-10H2,2-3H3",257.37062,-5.4722095335550005,0.1714317258150002,5.643641259370001,2.004961510792913
000001237,NCC(c1ccc(c(c1)OC)O)O,C9H13NO3,"InChI=1S/C9H13NO3/c1-13-9-4-6(8(12)5-10)2-3-7(9)11/h2-4,8,11-12H,5,10H2,1H3",183.20442,-5.39873879392,0.3047675125599998,5.70350630648,1.487314905853498
000001238,CN1CCN(CC1)C1Cc2ccccc2Sc2c1cc(Cl)cc2,C19H21ClN2S,"InChI=1S/C19H21ClN2S/c1-21-8-10-22(11-9-21)17-12-14-4-2-3-5-18(14)23-19-7-6-15(20)13-16(17)19/h2-7,13,17H,8-12H2,1H3",344.90144,-5.0830867273399996,-0.7020537342899997,4.38103299305,1.8133767328236017
000001240,CCCN(C1CCc2c(C1)cccc2O)CCc1ccccc1,C21H27NO,"InChI=1S/C21H27NO/c1-2-14-22(15-13-17-7-4-3-5-8-17)19-11-12-20-18(16-19)9-6-10-21(20)23/h3-10,19,23H,2,11-16H2,1H3",309.44518,-5.488536364585,0.1306146482399999,5.619151012825,1.4641750926750532
000001241,C=CCN1CCc2c(C(C1)c1ccccc1)cc(c(c2)O)O,C19H21NO2,"InChI=1S/C19H21NO2/c1-2-9-20-10-8-15-11-18(21)19(22)12-16(15)17(13-20)14-6-4-3-5-7-14/h2-7,11-12,17,21-22H,1,8-10,13H2",295.37554,-5.341594885315001,0.05714390860500007,5.398738793920001,2.615005791017297
000001242,Oc1cc2CCNCC(c2cc1O)c1ccccc1,C16H17NO2,"InChI=1S/C16H17NO2/c18-15-8-12-6-7-17-10-14(13(12)9-16(15)19)11-4-2-1-3-5-11/h1-5,8-9,14,17-19H,6-7,10H2",255.31168,-5.3279891927900005,0.08163415514999972,5.40962334794,2.613584231799886
000001245,COc1cc(ccc1O)C(C(=O)O)O,C9H10O5,"InChI=1S/C9H10O5/c1-14-7-4-5(2-3-6(7)10)8(11)9(12)13/h2-4,8,10-11H,1H3,(H,12,13)",198.1727,-5.7388811070450005,-0.23673904993500017,5.50214205711,1.6366602409666462
000001247,CCCc1cc(=O)oc2c1c1OC(C)(C)CCc1c1c2C(O)C(C(O1)C)C,C22H28O5,"InChI=1S/C22H28O5/c1-6-7-13-10-15(23)26-21-16(13)20-14(8-9-22(4,5)27-20)19-17(21)18(24)11(2)12(3)25-19/h10-12,18,24H,6-9H2,1-5H3",372.45472,-5.65452581339,-1.37145380652,4.28307200687,7.284460723161942
000001249,Oc1cc2OC(c3cc(O)c(c(c3)O)O)C(Cc2c(c1)O)O,C15H14O7,"InChI=1S/C15H14O7/c16-7-3-9(17)8-5-12(20)15(22-13(8)4-7)6-1-10(18)14(21)11(19)2-6/h1-4,12,15-21H,5H2",306.26746,-5.352479439335,0.4054496372449998,5.75792907658,3.347747172050482
000001250,CN1CCC2(C1N(C)c1c2cc(cc1)O)C,C13H18N2O,"InChI=1S/C13H18N2O/c1-13-6-7-14(2)12(13)15(3)11-5-4-9(16)8-10(11)13/h4-5,8,12,16H,6-7H2,1-3H3",218.29482,-4.666752536075,0.09796098618000038,4.7647135222550006,2.686862486682562
000001251,C=C1C(C)CCC2=C(C1c1cc(O)ccc1O)CCCC2(C)C,C21H28O2,"InChI=1S/C21H28O2/c1-13-7-9-18-16(6-5-11-21(18,3)4)20(14(13)2)17-12-15(22)8-10-19(17)23/h8,10,12-13,20,22-23H,2,5-7,9,11H2,1,3-4H3",312.44582,-5.096692419865,0.013605692525000102,5.11029811239,1.0263234831757482
000001252,O=C1C=CC2(C(=C1)C1=C(CO2)C(C)CCC2=C1CCCC2(C)C)O,C21H26O3,"InChI=1S/C21H26O3/c1-13-6-7-17-15(5-4-9-20(17,2)3)19-16(13)12-24-21(23)10-8-14(22)11-18(19)21/h8,10-11,13,23H,4-7,9,12H2,1-3H3",326.42934,-5.820515262195,-1.9020758149950003,3.9184394472,5.562779145047734
000001253,CC=C1C2C=C(CC1(N)c1c(C2)[nH]c(=O)cc1)C,C15H18N2O,"InChI=1S/C15H18N2O/c1-3-11-10-6-9(2)8-15(11,16)12-4-5-14(18)17-13(12)7-10/h3-6,10H,7-8,16H2,1-2H3,(H,17,18)",242.31622,-5.412344486445,-1.1129456485449998,4.2993988379,3.6550609923656543
000001254,CC1CCC(C(C1)O)C(C)C,C10H20O,"InChI=1S/C10H20O/c1-7(2)9-5-4-8(3)6-10(9)11/h7-11H,4-6H2,1-3H3",156.2652,-6.66678933725,1.8530953219050001,8.519884659155,1.8228611345360348
000001255,COc1ccc2c3c1OC1C43CCNC(C2)C4C=CC1O,C17H19NO3,"InChI=1S/C17H19NO3/c1-20-13-5-2-9-8-11-10-3-4-12(19)16-17(10,6-7-18-11)14(9)15(13)21-16/h2-5,10-12,16,18-19H,6-8H2,1H3",285.33766,-5.1837688520250005,-1.2598871278150003,3.92388172421,2.2262129611187245
000001256,CC(=C)C1CCC(=CC1)C(=O)O,C10H14O2,"InChI=1S/C10H14O2/c1-7(2)8-3-5-9(6-4-8)10(11)12/h5,8H,1,3-4,6H2,2H3,(H,11,12)",166.21696,-6.745702353895,-0.9496773382450003,5.79602501565,4.631016473346861
000001257,CCCN1CCCC2C1Cc1cn[nH]c1C2,C13H21N3,"InChI=1S/C13H21N3/c1-2-5-16-6-3-4-10-7-12-11(8-13(10)16)9-14-15-12/h9-10,13H,2-8H2,1H3,(H,14,15)",219.32594,-5.624593289835,0.7183805653200004,6.342973855155001,3.1140735062295817
000001258,OCC(c1ccccc1)C(=O)OC1CC2C3C(C(C1)[N+]2([O-])C)O3,C17H21NO5,"InChI=1S/C17H21NO5/c1-18(21)13-7-11(8-14(18)16-15(13)23-16)22-17(20)12(9-19)10-5-3-2-4-6-10/h2-6,11-16,19H,7-9H2,1H3",319.35234,-5.347037162325,-0.4680358228600001,4.879001339465,1.7842113970855582
000001260,CCCCOc1ccc(cc1)S(=O)(=O)N1CC(CC1C(=O)NO)NS(=O)(=O)C,C16H25N3O7S2,"InChI=1S/C16H25N3O7S2/c1-3-4-9-26-13-5-7-14(8-6-13)28(24,25)19-11-12(18-27(2,22)23)10-15(19)16(20)17-21/h5-8,12,15,18,21H,3-4,9-11H2,1-2H3,(H,17,20)",435.5156,-6.17698440635,-1.205464357715,4.971520048635,8.20117020019253
000001262,OC1C(O)C(NC1c1c[nH]c2c1[nH]cnc2=O)COP(=O)(O)O,C11H15N4O7P,"InChI=1S/C11H15N4O7P/c16-9-5(2-22-23(19,20)21)15-7(10(9)17)4-1-12-8-6(4)13-3-14-11(8)18/h1,3,5,7,9-10,12,15-17H,2H2,(H,13,14,18)(H2,19,20,21)",346.233161,-5.91031283286,-0.7891301664499997,5.12118266641,6.864710389729926
000001263,SCC(C(=O)N=C(c1ccc(s1)Cn1cnnn1)C(=O)O)CCc1ccccc1,C19H19N5O3S2,"InChI=1S/C19H19N5O3S2/c25-18(14(11-28)7-6-13-4-2-1-3-5-13)21-17(19(26)27)16-9-8-15(29-16)10-24-12-20-22-23-24/h1-5,8-9,12,14,28H,6-7,10-11H2,(H,26,27)",429.51586,-6.696721860805001,-3.061280818125,3.6354410426800006,6.934123866476067
000001265,O=CNc1cn(c(n1)C(=O)Nc1cn(c(n1)C(=O)Nc1cn(c(n1)C(=O)NCCN(C)C)C)C)C,C20H27N11O4,"InChI=1S/C20H27N11O4/c1-28(2)7-6-21-18(33)15-24-13(9-30(15)4)26-20(35)17-25-14(10-31(17)5)27-19(34)16-23-12(22-11-32)8-29(16)3/h8-11H,6-7H2,1-5H3,(H,21,33)(H,22,32)(H,26,35)(H,27,34)",485.49968,-5.45316156402,-1.4694147927000003,3.98374677132,5.893767549362208
000001266,N#Cc1ccc2cc1Oc1ccc3c(c1)c(ccc3)N1CCC(NCc3n(C2)cnc3)C1=O,C26H21N5O2,"InChI=1S/C26H21N5O2/c27-12-19-5-4-17-10-25(19)33-21-7-6-18-2-1-3-24(22(18)11-21)31-9-8-23(26(31)32)29-14-20-13-28-16-30(20)15-17/h1-7,10-11,13,16,23,29H,8-9,14-15H2",435.47724,-5.7606502150850005,-1.6136351334650003,4.14701508162,2.787807622370848
000001267,N#Cc1ccc2cc1Oc1ccc3c(c1)c(ccc3)N1CCC(C1=O)NCCc1n(C2)cnc1,C27H23N5O2,"InChI=1S/C27H23N5O2/c28-14-20-5-4-18-12-26(20)34-22-7-6-19-2-1-3-25(23(19)13-22)32-11-9-24(27(32)33)30-10-8-21-15-29-17-31(21)16-18/h1-7,12-13,15,17,24,30H,8-11,16H2",449.50382,-5.744323384055001,-1.5837026099100004,4.160620774145,4.397890178027641
000001268,O=C(NC(C1NC(C(S1)(C)C)C(=O)O)C(=O)NCc1ccccc1)Cc1ccccc1,C23H27N3O4S,"InChI=1S/C23H27N3O4S/c1-23(2)19(22(29)30)26-21(31-23)18(20(28)24-14-16-11-7-4-8-12-16)25-17(27)13-15-9-5-3-6-10-15/h3-12,18-19,21,26H,13-14H2,1-2H3,(H,24,28)(H,25,27)(H,29,30)",441.54318,-6.049090896615,-0.26667157349000004,5.782419323125,2.6397952116815806
000001270,NC(C(C(=O)NC(C(=O)O)CC(C)C)O)Cc1ccc(cc1)[N+](=O)[O-],C16H23N3O6,"InChI=1S/C16H23N3O6/c1-9(2)7-13(16(22)23)18-15(21)14(20)12(17)8-10-3-5-11(6-4-10)19(24)25/h3-6,9,12-14,20H,7-8,17H2,1-2H3,(H,18,21)(H,22,23)",353.37032,-7.069517835989999,-2.424534407955,4.644983428034999,7.821912799532157
000001271,NC(C1CC1C(=O)O)C(=O)O,C6H9NO4,"InChI=1S/C6H9NO4/c7-4(6(10)11)2-1-3(2)5(8)9/h2-4H,1,7H2,(H,8,9)(H,10,11)",159.13996,-6.772913738945,-0.6013716096049997,6.171542129340001,5.93993971001373
000001272,CCC(C(C(=O)O)CNS(=O)(=O)c1ccc(cc1)C)C=O,C14H19NO5S,"InChI=1S/C14H19NO5S/c1-3-11(9-16)13(14(17)18)8-15-21(19,20)12-6-4-10(2)5-7-12/h4-7,9,11,13,15H,3,8H2,1-2H3,(H,17,18)",313.36936,-6.906249525690001,-1.3578481139949998,5.548401411695001,2.3803827547917584
000001273,CCC(C(C(=O)O)CNS(=O)(=O)c1ccc(cc1)[N+](=O)[O-])C=O,C13H16N2O7S,"InChI=1S/C13H16N2O7S/c1-2-9(8-16)12(13(17)18)7-14-23(21,22)11-5-3-10(4-6-11)15(19)20/h3-6,8-9,12,14H,2,7H2,1H3,(H,17,18)",344.34034,-7.194690207220001,-2.6095718262949994,4.585118380925001,8.729252442327807
000001274,CCCCCCCCC=CC=CC(N)C,C14H27N,"InChI=1S/C14H27N/c1-3-4-5-6-7-8-9-10-11-12-13-14(2)15/h10-14H,3-9,15H2,1-2H3",209.37088,-5.602824181795,-0.28027726601500014,5.32254691578,1.2414687937012352
000001276,CCC1C(=O)N(C1C(=O)O)S(=O)(=O)c1ccc(cc1)C,C13H15NO5S,"InChI=1S/C13H15NO5S/c1-3-10-11(13(16)17)14(12(10)15)20(18,19)9-6-4-8(2)5-7-9/h4-7,10-11H,3H2,1-2H3,(H,16,17)",297.3269,-7.13482516011,-1.6898270116049998,5.444998148505,3.7138801456961423
000001277,OCC(C(C1OC(CC(C1NC(=O)C)O)P(=O)(O)O)O)O,C10H20NO9P,"InChI=1S/C10H20NO9P/c1-4(13)11-8-5(14)2-7(21(17,18)19)20-10(8)9(16)6(15)3-12/h5-10,12,14-16H,2-3H2,1H3,(H,11,13)(H2,17,18,19)",329.240861,-6.615087705655,0.14966261777500023,6.76475032343,1.990641815597422
000001279,O=C(C1=CC2C(=N1)C=CC(=C2)C(=N)N)N1CCC(CC1)Cc1ccccc1,C22H24N4O,"InChI=1S/C22H24N4O/c23-21(24)17-6-7-19-18(13-17)14-20(25-19)22(27)26-10-8-16(9-11-26)12-15-4-2-1-3-5-15/h1-7,13-14,16,18H,8-12H2,(H3,23,24)",360.45216,-6.0572543121299995,-2.212285604565,3.8449687075649996,3.2657541629430713
000001280,CNC1CC(C)S(=O)(=O)c2c1cc(s2)S(=O)(=O)N,C9H14N2O4S3,"InChI=1S/C9H14N2O4S3/c1-5-3-7(11-2)6-4-8(18(10,14)15)16-9(6)17(5,12)13/h4-5,7,11H,3H2,1-2H3,(H2,10,14,15)",310.41346,-6.631414536685,-2.0299693247300006,4.601445211954999,4.824412212848939
000001282,NC(=N)c1ccc2c(c1)[nH]c(n2)Cc1nc2c([nH]1)cccc2,C16H14N6,"InChI=1S/C16H14N6/c17-16(18)9-5-6-12-13(7-9)22-15(21-12)8-14-19-10-3-1-2-4-11(10)20-14/h1-7H,8H2,(H3,17,18)(H,19,20)(H,21,22)",290.32256,-5.97562015698,-1.0122635238599997,4.96335663312,1.419901423864699
000001284,CCCOC(=O)C1=CSC2N1C(=O)C2C(OC(=O)C)C,C13H17NO5S,"InChI=1S/C13H17NO5S/c1-4-5-18-13(17)9-6-20-12-10(11(16)14(9)12)7(2)19-8(3)15/h6-7,10,12H,4-5H2,1-3H3",299.34278,-5.972899018475,-1.3959440530650005,4.57695496541,3.7215604739600834
000001285,CC1=CCCC(=CCCC(=CC2C(CC1)C(=C)C(=O)O2)C)C(=O)O,C20H26O4,"InChI=1S/C20H26O4/c1-13-6-4-8-16(19(21)22)9-5-7-14(2)12-18-17(11-10-13)15(3)20(23)24-18/h6,9,12,17-18H,3-5,7-8,10-11H2,1-2H3,(H,21,22)",330.41804,-5.679016059935,-1.2925407898749999,4.38647527006,3.521971551311282
000001286,COc1ccc(cc1OC)CC1C(=O)OCC1Cc1ccc(c(c1)OC)OC,C22H26O6,"InChI=1S/C22H26O6/c1-24-18-7-5-14(11-20(18)26-3)9-16-13-28-22(23)17(16)10-15-6-8-19(25-2)21(12-15)27-4/h5-8,11-12,16-17H,9-10,13H2,1-4H3",386.43824,-5.19193226754,-0.11700895571499981,5.074923311825001,5.556548632430297
000001287,Oc1cc(O)c2c(c1)OC(C(C2)OC(=O)c1cc(O)c(c(c1)O)O)c1cc(O)c(c(c1)O)O,C22H18O11,"InChI=1S/C22H18O11/c23-10-5-12(24)11-7-18(33-22(31)9-3-15(27)20(30)16(28)4-9)21(32-17(11)6-10)8-1-13(25)19(29)14(26)2-8/h1-6,18,21,23-30H,7H2",458.37172,-5.600103043290001,-0.5279008699699999,5.072202173320001,5.948100741513126
000001288,OCC1NC(=O)C(C(C)C)N(c2c3c(C1)c[nH]c3ccc2)C,C17H23N3O2,"InChI=1S/C17H23N3O2/c1-10(2)16-17(22)19-12(9-21)7-11-8-18-13-5-4-6-14(15(11)13)20(16)3/h4-6,8,10,12,16,18,21H,7,9H2,1-3H3,(H,19,22)",301.38342,-5.303498946245,-0.4054496372449998,4.898049309,6.04354585941515
000001289,CNC(=O)C(Cc1ccccc1)NC(=O)C(CC(=O)NO)CC(C)C,C18H27N3O4,"InChI=1S/C18H27N3O4/c1-12(2)9-14(11-16(22)21-25)17(23)20-15(18(24)19-3)10-13-7-5-4-6-8-13/h4-8,12,14-15,25H,9-11H2,1-3H3,(H,19,24)(H,20,23)(H,21,22)",349.42468,-6.17698440635,-0.33197889761,5.84500550874,3.505178571473214
000001291,COCCN1CC(NCC)c2c(S1(=O)=O)sc(c2)S(=O)(=O)N,C11H19N3O5S3,"InChI=1S/C11H19N3O5S3/c1-3-13-9-7-14(4-5-19-2)22(17,18)11-8(9)6-10(20-11)21(12,15)16/h6,9,13H,3-5,7H2,1-2H3,(H2,12,15,16)",369.48066,-6.1143982207350005,-2.1116034798800003,4.002794740855,5.288551555689611
000001292,OC(c1ccccc1)C(=O)O,C8H8O3,"InChI=1S/C8H8O3/c9-7(8(10)11)6-4-2-1-3-5-6/h1-5,7,9H,(H,10,11)",152.14732,-6.840942201570001,-0.5959293325950004,6.245012868975,3.9768984462685237
000001293,CCCCCC=CCC=CCC=CCC=CCCCC(=O)NC(CO)C,C23H39NO2,"InChI=1S/C23H39NO2/c1-3-4-5-6-7-8-9-10-11-12-13-14-15-16-17-18-19-20-23(26)24-22(2)21-25/h7-8,10-11,13-14,16-17,22,25H,3-6,9,12,15,18-21H2,1-2H3,(H,24,26)",361.56126,-6.21508034542,0.18231627983499976,6.397396625254999,3.556978220540857
000001294,CCC(OP(=O)(Cl)C)COc1ccccc1,C11H16ClO3P,"InChI=1S/C11H16ClO3P/c1-3-10(15-16(2,12)13)9-14-11-7-5-4-6-8-11/h4-8,10H,3,9H2,1-2H3",262.669701,-5.907591694355,0.002721138504999665,5.91031283286,2.3047213350340208
000001295,C1CNC(C1)C(c1ccccc1)c1ccccc1,C17H19N,"InChI=1S/C17H19N/c1-3-8-14(9-4-1)17(16-12-7-13-18-16)15-10-5-2-6-11-15/h1-6,8-11,16-18H,7,12-13H2",237.33946,-5.888543724820001,-0.06258618561500029,5.8259575392050005,1.709178930600597
000001296,CNC1CN(c2cccc(c2)OC)S(=O)(=O)c2c1cc(s2)S(=O)(=O)N,C14H17N3O5S3,"InChI=1S/C14H17N3O5S3/c1-16-12-8-17(9-4-3-5-10(6-9)22-2)25(20,21)14-11(12)7-13(23-14)24(15,18)19/h3-7,12,16H,8H2,1-2H3,(H2,15,18,19)",403.49688,-5.63819898236,-2.09527664885,3.5429223335099995,5.334566770387732
000001297,NC(c1ccc(c(c1)O)C(=O)O)C(=O)O,C9H9NO5,"InChI=1S/C9H9NO5/c10-7(9(14)15)4-1-2-5(8(12)13)6(11)3-4/h1-3,7,11H,10H2,(H,12,13)(H,14,15)",211.17146,-6.73209666137,-1.9456140310750003,4.786482630295,0.7838647092126295