mol_id,SMILES,formula,inchi,mass,HOMO(eV),LUMO(eV),GAP(eV),dipole_moment
000004989,CN1CCCN=C1C=Cc1cccs1,C11H14N2S,"InChI=1S/C11H14N2S/c1-13-8-3-7-12-11(13)6-5-10-4-2-9-14-10/h2,4-6,9H,3,7-8H2,1H3",206.30726,-5.586497350765001,-1.13199361808,4.4545037326850005,2.408044545850637
000004990,CNC(=O)OCc1cccc(n1)COC(=O)NC,C11H15N3O4,"InChI=1S/C11H15N3O4/c1-12-10(15)17-6-8-4-3-5-9(14-8)7-18-11(16)13-2/h3-5H,6-7H2,1-2H3,(H,12,15)(H,13,16)",253.2545,-6.609645428645,-0.5142951774449998,6.0953502512,0.01841560710375849
000004992,COc1ccc(cc1)CN(c1ccccn1)CCN(C)C,C17H23N3O,"InChI=1S/C17H23N3O/c1-19(2)12-13-20(17-6-4-5-11-18-17)14-15-7-9-16(21-3)10-8-15/h4-11H,12-14H2,1-3H3",285.38402,-5.145672912955,-0.22857563442000028,4.917097278535,1.9881004586297946
000004993,CCc1nc(N)nc(c1c1ccc(cc1)Cl)N,C12H13ClN4,"InChI=1S/C12H13ClN4/c1-2-9-10(11(14)17-12(15)16-9)7-3-5-8(13)6-4-7/h3-6H,2H2,1H3,(H4,14,15,16,17)",248.71142,-5.52935344216,-0.4816415153850002,5.0477119267749995,1.9147167465379833
000004994,CCC1(CC)C(=O)NC=CC1=O,C9H13NO2,"InChI=1S/C9H13NO2/c1-3-9(4-2)7(11)5-6-10-8(9)12/h5-6H,3-4H2,1-2H3,(H,10,12)",167.20502,-6.566107212565,-1.6544522110399997,4.911655001525,3.2412826988157017
000004996,ONC(=O)CCCCCCC(=O)Nc1cccnc1,C13H19N3O3,"InChI=1S/C13H19N3O3/c17-12(15-11-6-5-9-14-10-11)7-3-1-2-4-8-13(18)16-19/h5-6,9-10,19H,1-4,7-8H2,(H,15,17)(H,16,18)",265.30826,-6.206916929905,-0.6231407176449997,5.58377621226,1.8837951202649401
000004997,CC(=CCc1c[nH]c(c1)C(=O)O)CCC=C(C)C,C15H21NO2,"InChI=1S/C15H21NO2/c1-11(2)5-4-6-12(3)7-8-13-9-14(15(17)18)16-10-13/h5,7,9-10,16H,4,6,8H2,1-3H3,(H,17,18)",247.33274,-5.997389265020001,-0.8707643216000003,5.12662494342,5.140713073282441
000004998,COC1=CC(C)C2C(C1=O)(C)C1C(=O)C(=C(C3C1(C(C2)OC(=O)C3)C)C)OC,C22H28O6,"InChI=1S/C22H28O6/c1-10-7-14(26-5)20(25)22(4)12(10)8-15-21(3)13(9-16(23)28-15)11(2)18(27-6)17(24)19(21)22/h7,10,12-13,15,19H,8-9H2,1-6H3",388.45412,-4.82185743086,-1.8748644299450001,2.9469930009149996,3.8487605980236026
000004999,Clc1ccc2c(c1)C(=NCC(=S)N2CC(F)(F)F)c1ccccc1F,C17H11ClF4N2S,"InChI=1S/C17H11ClF4N2S/c18-10-5-6-14-12(7-10)16(11-3-1-2-4-13(11)19)23-8-15(25)24(14)9-17(20,21)22/h1-7H,8-9H2",386.7942528,-5.78514046163,-1.858537598915,3.9266028627150003,5.097603063297396
000005000,O=C1N=C2N(C1C)Cc1c(N2)cccc1Cl,C11H10ClN3O,"InChI=1S/C11H10ClN3O/c1-6-10(16)14-11-13-9-4-2-3-8(12)7(9)5-15(6)11/h2-4,6H,5H2,1H3,(H,13,14,16)",235.6696,-6.29671450057,-1.0993399560199997,5.197374544550001,6.011260509447083
000005002,OCCOCCN1CCN(CC1)C1=Nc2ccccc2Sc2c1cccc2,C21H25N3O2S,"InChI=1S/C21H25N3O2S/c25-14-16-26-15-13-23-9-11-24(12-10-23)21-17-5-1-3-7-19(17)27-20-8-4-2-6-18(20)22-21/h1-8,25H,9-16H2",383.5071,-5.292614392225,-1.2027432192100003,4.089871173015,2.267008072059074
000005004,Oc1c(O)ccc2c1C(=O)c1c(C2=O)c(O)ccc1O,C14H8O6,"InChI=1S/C14H8O6/c15-6-3-4-7(16)11-10(6)12(18)5-1-2-8(17)13(19)9(5)14(11)20/h1-4,15-17,19H",272.20972,-5.5728916582400005,-2.35106366832,3.2218279899200004,2.549766245477024
000005005,CCOC(=O)C(NC(C(=O)N1Cc2ccccc2CC1C(=O)O)C)CCc1ccccc1,C25H30N2O5,"InChI=1S/C25H30N2O5/c1-3-32-25(31)21(14-13-18-9-5-4-6-10-18)26-17(2)23(28)27-16-20-12-8-7-11-19(20)15-22(27)24(29)30/h4-12,17,21-22,26H,3,13-16H2,1-2H3,(H,29,30)",438.5161,-6.4463771183450005,-0.541506562495,5.9048705558500005,8.758834065176655
000005007,NN1CCCC2C1Cc1cnc(nc1C2)N,C11H17N5,"InChI=1S/C11H17N5/c12-11-14-6-8-5-10-7(4-9(8)15-11)2-1-3-16(10)13/h6-7,10H,1-5,13H2,(H2,12,14,15)",219.28618,-5.0068948492,-0.7455919503699997,4.26130289883,1.3390688495600216
000005009,C=CC1CC2CCC1CC2C(c1ccnc2c1cc(OC)cc2)O,C21H25NO2,"InChI=1S/C21H25NO2/c1-3-13-10-15-5-4-14(13)11-18(15)21(23)17-8-9-22-20-7-6-16(24-2)12-19(17)20/h3,6-9,12-15,18,21,23H,1,4-5,10-11H2,2H3",323.4287,-5.91575510987,-1.2898196513700002,4.6259354585,2.5132818886185446
000005010,CCOC(=O)OC(c1ccnc2c1cc(OC)cc2)C1CC2CCN1CC2C=C,C23H28N2O4,"InChI=1S/C23H28N2O4/c1-4-15-14-25-11-9-16(15)12-21(25)22(29-23(26)28-5-2)18-8-10-24-20-7-6-17(27-3)13-19(18)20/h4,6-8,10,13,15-16,21-22H,1,5,9,11-12,14H2,2-3H3",396.47942,-5.630035566845,-1.3088676209049996,4.32116794594,3.2035766713134866
000005011,N1CCN(CC1)c1ccc2c(n1)cccc2,C13H15N3,"InChI=1S/C13H15N3/c1-2-4-12-11(3-1)5-6-13(15-12)16-9-7-14-8-10-16/h1-6,14H,7-10H2",213.2783,-5.38241196289,-1.06124401695,4.32116794594,1.8356729012446635
000005012,[O-][N+](=O)c1ccc2c(c1)ccc(n2)N1CCNCC1,C13H14N4O2,"InChI=1S/C13H14N4O2/c18-17(19)11-2-3-12-10(9-11)1-4-13(15-12)16-7-5-14-6-8-16/h1-4,9,14H,5-8H2",258.27586,-5.89398600183,-2.1769108040000003,3.71707519783,7.02709391146945
000005013,CN1CCN(CC1)c1ccc2c(n1)cccc2,C14H17N3,"InChI=1S/C14H17N3/c1-16-8-10-17(11-9-16)14-7-6-12-4-2-3-5-13(12)15-14/h2-7H,8-11H2,1H3",227.30488,-5.12118266641,-1.0558017399399997,4.0653809264700005,1.8288681176041646
000005015,CCC(CC(=O)Nc1c(C)cccc1C)(CC)CC,C17H27NO,"InChI=1S/C17H27NO/c1-6-17(7-2,8-3)12-15(19)18-16-13(4)10-9-11-14(16)5/h9-11H,6-8,12H2,1-5H3,(H,18,19)",261.40238,-6.0953502512,-0.1306146482399999,5.96473560296,2.89878333519444
000005017,CCCCC1(Cc2c(C1=O)c(Cl)c(c(c2)OCC(=O)O)Cl)C1CCCC1,C20H24Cl2O4,"InChI=1S/C20H24Cl2O4/c1-2-3-8-20(13-6-4-5-7-13)10-12-9-14(26-11-15(23)24)17(21)18(22)16(12)19(20)25/h9,13H,2-8,10-11H2,1H3,(H,23,24)",399.30816,-6.69944299931,-1.940171754065,4.759271245245,4.165121508489879
000005018,CN1CCc2c(C(C1)c1ccccc1)cc(c(c2)Cl)O,C17H18ClNO,"InChI=1S/C17H18ClNO/c1-19-8-7-13-9-16(18)17(20)10-14(13)15(11-19)12-5-3-2-4-6-12/h2-6,9-10,15,20H,7-8,11H2,1H3",287.78392,-5.836842093225,-0.33470003611499966,5.50214205711,1.3715875436562552
000005019,CCCN1CCc2c3C1Cc1ccc(c(c1c3cc(c2)O)O)O,C19H21NO3,"InChI=1S/C19H21NO3/c1-2-6-20-7-5-12-8-13(21)10-14-17(12)15(20)9-11-3-4-16(22)19(23)18(11)14/h3-4,8,10,15,21-23H,2,5-7,9H2,1H3",311.37494,-5.41506562495,-0.90886026067,4.50620536428,2.0870787669251967
000005020,Oc1cc2CCN(C3c2c(c1)c1c(C3)ccc(c1O)O)C,C17H17NO3,"InChI=1S/C17H17NO3/c1-18-5-4-10-6-11(19)8-12-15(10)13(18)7-9-2-3-14(20)17(21)16(9)12/h2-3,6,8,13,19-21H,4-5,7H2,1H3",283.32178,-5.3579217163449995,-0.8680431830949997,4.48987853325,1.3051541486993021
000005021,COc1ccc2c(c1O)c1cccc3c1C(C2)N(C)CC3,C18H19NO2,"InChI=1S/C18H19NO2/c1-19-9-8-11-4-3-5-13-16(11)14(19)10-12-6-7-15(21-2)18(20)17(12)13/h3-7,14,20H,8-10H2,1-2H3",281.34896,-5.308941223255,-0.5986504711,4.710290752155,2.522130926585097
000005022,OCC1OC(C(C1O)O)n1cnc2c1ncnc2NC(Cc1ccccc1)C,C19H23N5O4,"InChI=1S/C19H23N5O4/c1-11(7-12-5-3-2-4-6-12)23-17-14-18(21-9-20-17)24(10-22-14)19-16(27)15(26)13(8-25)28-19/h2-6,9-11,13,15-16,19,25-27H,7-8H2,1H3,(H,20,21,23)",385.41702,-5.80146729266,-0.90886026067,4.89260703199,3.1166197345696505
000005023,Oc1ccc2c(c1O)c1cccc3c1C(C2)NCC3,C16H15NO2,"InChI=1S/C16H15NO2/c18-13-5-4-10-8-12-14-9(6-7-17-12)2-1-3-11(14)15(10)16(13)19/h1-5,12,17-19H,6-8H2",253.2958,-5.4286713174750005,-0.88709115263,4.5415801648450005,3.2562789918915116
000005024,COc1cc2c(cc1OC)CCN(CC2c1ccccc1)C,C19H23NO2,"InChI=1S/C19H23NO2/c1-20-10-9-15-11-18(21-2)19(22-3)12-16(15)17(13-20)14-7-5-4-6-8-14/h4-8,11-12,17H,9-10,13H2,1-3H3",297.39142,-5.14295177445,0.13605692525000013,5.2790086997,2.505369891412643
000005025,CC(Cc1ccccc1)NCCCc1ccccc1,C18H23N,"InChI=1S/C18H23N/c1-16(15-18-11-6-3-7-12-18)19-14-8-13-17-9-4-2-5-10-17/h2-7,9-12,16,19H,8,13-15H2,1H3",253.38192,-5.782419323125,0.06258618561500029,5.84500550874,0.9153792251334962
000005026,CC(OC(=O)C1=C(C)NC(=C(C1c1cccc2c1non2)[N+](=O)[O-])C)C,C17H18N4O5,"InChI=1S/C17H18N4O5/c1-8(2)25-17(22)13-9(3)18-10(4)16(21(23)24)14(13)11-6-5-7-12-15(11)20-26-19-12/h5-8,14,18H,1-4H3",358.34862,-6.092629112695,-2.511610840115,3.5810182725799997,1.986600341827465
000005029,COCCCOc1ccnc(c1C)CS(=O)c1nc2c([nH]1)cccc2,C18H21N3O3S,"InChI=1S/C18H21N3O3S/c1-13-16(19-9-8-17(13)24-11-5-10-23-2)12-25(22)18-20-14-6-3-4-7-15(14)21-18/h3-4,6-9H,5,10-12H2,1-2H3,(H,20,21)",359.44264,-5.945687633425,-0.9170236761849999,5.02866395724,4.361745286303064
000005032,CNC(C(c1ccccc1)O)C,C10H15NO,"InChI=1S/C10H15NO/c1-8(11-2)10(12)9-6-4-3-5-7-9/h3-8,10-12H,1-2H3",165.2322,-6.171542129340001,-0.005442277010000218,6.16609985233,2.541208552501152
000005033,CC1CC2OC2C=CC=CC(=O)Cc2c(C(=O)O1)c(O)cc(c2Cl)O,C18H17ClO6,"InChI=1S/C18H17ClO6/c1-9-6-15-14(25-15)5-3-2-4-10(20)7-11-16(18(23)24-9)12(21)8-13(22)17(11)19/h2-5,8-9,14-15,21-22H,6-7H2,1H3",364.77698,-5.986504711,-1.2326757427650001,4.753828968235,5.472718488177242
000005035,Oc1ccc2c(c1)sc(c2C(=O)c1ccc(cc1)OCCN1CCCCC1)c1ccc(cc1)O,C28H27NO4S,"InChI=1S/C28H27NO4S/c30-21-8-4-20(5-9-21)28-26(24-13-10-22(31)18-25(24)34-28)27(32)19-6-11-23(12-7-19)33-17-16-29-14-2-1-3-15-29/h4-13,18,30-31H,1-3,14-17H2",473.58328,-5.24635503764,-1.3007042053899998,3.94565083225,6.923600752230446
000005036,OC(=O)CCn1c2CCC(Cc2c2c1cccc2)NS(=O)(=O)c1ccc(cc1)F,C21H21FN2O4S,"InChI=1S/C21H21FN2O4S/c22-14-5-8-16(9-6-14)29(27,28)23-15-7-10-20-18(13-15)17-3-1-2-4-19(17)24(20)12-11-21(25)26/h1-6,8-9,15,23H,7,10-13H2,(H,25,26)",416.4658432,-5.330710331295,-1.2435602967849997,4.0871500345100005,2.1241101703861784
000005037,CC(Nc1c(C)n(n(c1=O)c1ccccc1)C)C,C14H19N3O,"InChI=1S/C14H19N3O/c1-10(2)15-13-11(3)16(4)17(14(13)18)12-8-6-5-7-9-12/h5-10,15H,1-4H3",245.32016,-5.38241196289,-0.6149773021299998,4.76743466076,3.5691610702061345
000005038,CCOC(=O)C(NC(C(=O)N1C2CCCC2CC1C(=O)O)C)CCc1ccccc1,C23H32N2O5,"InChI=1S/C23H32N2O5/c1-3-30-23(29)18(13-12-16-8-5-4-6-9-16)24-15(2)21(26)25-19-11-7-10-17(19)14-20(25)22(27)28/h4-6,8-9,15,17-20,24H,3,7,10-14H2,1-2H3,(H,27,28)",416.51058,-6.35657954768,-0.3591902826600002,5.99738926502,7.600006080768488
000005039,CNC(=C[N+](=O)[O-])NCCSCc1ccc(o1)CN(C)C,C13H22N4O3S,"InChI=1S/C13H22N4O3S/c1-14-13(9-17(18)19)15-6-7-21-10-12-5-4-11(20-12)8-16(2)3/h4-5,9,14-15H,6-8,10H2,1-3H3",314.40378,-5.4504404255150005,-1.1292724795749995,4.321167945940001,6.276366995405383
000005042,Clc1ccc(cc1)C(=O)NC(C(=O)O)Cc1cc(=O)[nH]c2c1cccc2,C19H15ClN2O4,"InChI=1S/C19H15ClN2O4/c20-13-7-5-11(6-8-13)18(24)22-16(19(25)26)9-12-10-17(23)21-15-4-2-1-3-14(12)15/h1-8,10,16H,9H2,(H,21,23)(H,22,24)(H,25,26)",370.7864,-6.239570591965,-1.8803067069550004,4.35926388501,4.0013157657444385
000005044,O=C(OCc1ccccc1)NCc1ccc(cc1)C(=O)Nc1ccccc1N,C22H21N3O3,"InChI=1S/C22H21N3O3/c23-19-8-4-5-9-20(19)25-21(26)18-12-10-16(11-13-18)14-24-22(27)28-15-17-6-2-1-3-7-17/h1-13H,14-15,23H2,(H,24,27)(H,25,26)",375.42044,-5.493978641595,-0.8272261055200003,4.666752536074999,3.0221173432251107
000005045,O=C(OCc1ccccc1)NCc1ccc(cc1)C(=O)Nc1ccccc1O,C22H20N2O4,"InChI=1S/C22H20N2O4/c25-20-9-5-4-8-19(20)24-21(26)18-12-10-16(11-13-18)14-23-22(27)28-15-17-6-2-1-3-7-17/h1-13,25H,14-15H2,(H,23,27)(H,24,26)",376.4052,-5.600103043290001,-0.7591976428949998,4.840905400395001,4.07277287462645
000005046,O=C(OCc1ccccc1)NCc1ccc(cc1)C(=O)Nc1cccc(c1)N,C22H21N3O3,"InChI=1S/C22H21N3O3/c23-19-7-4-8-20(13-19)25-21(26)18-11-9-16(10-12-18)14-24-22(27)28-15-17-5-2-1-3-6-17/h1-13H,14-15,23H2,(H,24,27)(H,25,26)",375.42044,-5.26268186867,-0.66395779522,4.59872407345,3.757625504890821
000005047,O=C(Nc1ccccc1N)C=Cc1ccc(cc1)NS(=O)(=O)c1ccccc1,C21H19N3O3S,"InChI=1S/C21H19N3O3S/c22-19-8-4-5-9-20(19)23-21(25)15-12-16-10-13-17(14-11-16)24-28(26,27)18-6-2-1-3-7-18/h1-15,24H,22H2,(H,23,25)",393.45886,-5.35520057784,-1.6653367650600002,3.6898638127799996,7.107978501435694
000005050,CC(CCOC(=O)c1cc(=O)c2c(o1)c1ccc(c(c1[nH]c2=O)C)C)C,C20H21NO5,"InChI=1S/C20H21NO5/c1-10(2)7-8-25-20(24)15-9-14(22)16-18(26-15)13-6-5-11(3)12(4)17(13)21-19(16)23/h5-6,9-10H,7-8H2,1-4H3,(H,21,23)",355.38444,-6.092629112695,-2.05718070978,4.035448402915,8.872574842682422
000005053,CC(=CC1C(C1(C)C)C(=O)OCc1coc(c1)Cc1ccccc1)C,C22H26O3,"InChI=1S/C22H26O3/c1-15(2)10-19-20(22(19,3)4)21(23)25-14-17-12-18(24-13-17)11-16-8-6-5-7-9-16/h5-10,12-13,19-20H,11,14H2,1-4H3",338.44004,-5.7905827386399995,-0.054422770100000406,5.736159968539999,1.243673766060055
000005054,Oc1cccc(c1)O,C6H6O2,"InChI=1S/C6H6O2/c7-5-2-1-3-6(8)4-5/h1-4,7-8H",110.11064,-5.69262175246,0.19864311086500042,5.891264863325,1.3379928350906818
000005055,CC(=O)Oc1cccc(c1)O,C8H8O3,"InChI=1S/C8H8O3/c1-6(9)11-8-4-2-3-7(10)5-8/h2-5,10H,1H3",152.14732,-5.962014464455,-0.454430130335,5.50758433412,1.1167312939977996
000005056,Oc1ccc(cc1)C=Cc1cc(O)cc(c1)O,C14H12O3,"InChI=1S/C14H12O3/c15-12-5-3-10(4-6-12)1-2-11-7-13(16)9-14(17)8-11/h1-9,15-17H",228.24328,-5.434113594485,-0.7455919503699997,4.688521644115,0.5325746828990278
000005057,CC(=O)OCC=C(C=CC=C(C=CC1=C(C)CCCC1(C)C)C)C,C22H32O2,"InChI=1S/C22H32O2/c1-17(9-7-10-18(2)14-16-24-20(4)23)12-13-21-19(3)11-8-15-22(21,5)6/h7,9-10,12-14H,8,11,15-16H2,1-6H3",328.48828,-5.396017655415,-0.9115813991749997,4.48443625624,2.385068111747964
000005059,CCCCCC(c1cccc(c1)OCc1ccc2c(n1)cccc2)O,C22H25NO2,"InChI=1S/C22H25NO2/c1-2-3-4-12-22(24)18-9-7-10-20(15-18)25-16-19-14-13-17-8-5-6-11-21(17)23-19/h5-11,13-15,22,24H,2-4,12,16H2,1H3",335.4394,-6.03004292708,-1.4612513771850004,4.568791549895,1.9865859907766388
000005060,N#CC(=Cc1ccc(c(c1)OC)OC)c1cccnc1,C16H14N2O2,"InChI=1S/C16H14N2O2/c1-19-15-6-5-12(9-16(15)20-2)8-14(10-17)13-4-3-7-18-11-13/h3-9,11H,1-2H3",266.29456,-5.6164298743200005,-1.6898270116049998,3.9266028627150007,5.144225196011932
000005061,N#CC(=Cc1cc(Cl)cc(c1)Cl)c1cccnc1,C14H8Cl2N2,"InChI=1S/C14H8Cl2N2/c15-13-5-10(6-14(16)7-13)4-12(8-17)11-2-1-3-18-9-11/h1-7,9H",275.13272,-6.892643833165001,-2.2531026821400006,4.639541151025,2.198080008534721
000005062,OCC1OC(Oc2cc(C=Cc3ccc(c(c3)O)OC)cc(c2)O)C(C(C1O)O)O,C21H24O9,"InChI=1S/C21H24O9/c1-28-16-5-4-11(8-15(16)24)2-3-12-6-13(23)9-14(7-12)29-21-20(27)19(26)18(25)17(10-22)30-21/h2-9,17-27H,10H2,1H3",420.40986,-5.439555871495,-0.8653220445900001,4.574233826905,5.893570279232275
000005063,O=C(ON=C1CCCCC1)NCCCCCCNC(=O)ON=C1CCCCC1,C20H34N4O4,"InChI=1S/C20H34N4O4/c25-19(27-23-17-11-5-3-6-12-17)21-15-9-1-2-10-16-22-20(26)28-24-18-13-7-4-8-14-18/h1-16H2,(H,21,25)(H,22,26)",394.50836,-6.530732412,-0.11428781721000014,6.41644459479,4.896882497632346
000005064,OCC1OC(C(C1O)O)n1cnc(n1)C(=O)N,C8H12N4O5,"InChI=1S/C8H12N4O5/c9-6(16)7-10-2-12(11-7)8-5(15)4(14)3(1-13)17-8/h2-5,8,13-15H,1H2,(H2,9,16)",244.20468,-6.9116918027,-0.9714464462850003,5.940245356415,4.4760646864376294
000005066,OCC1OC(C(C1O)O)OC1C(OC2OC(CN)C(C(C2N)O)O)C(N)CC(C1O)N,C17H34N4O10,"InChI=1S/C17H34N4O10/c18-2-6-10(24)12(26)8(21)16(28-6)30-14-5(20)1-4(19)9(23)15(14)31-17-13(27)11(25)7(3-22)29-17/h4-17,22-27H,1-3,18-21H2",454.47266,-6.027321788575001,1.4340399921350002,7.461361780710001,3.754677250500767
000005069,NCC(=O)NCc1nc(nn1c1ccc(cc1C(=O)c1ccccc1Cl)Cl)C(=O)N(C)C,C21H20Cl2N6O3,"InChI=1S/C21H20Cl2N6O3/c1-28(2)21(32)20-26-17(11-25-18(30)10-24)29(27-20)16-8-7-12(22)9-14(16)19(31)13-5-3-4-6-15(13)23/h3-9H,10-11,24H2,1-2H3,(H,25,30)",475.3279,-6.250455145985,-2.288477482705,3.96197766328,5.087724889197626
000005070,Nc1nc2c(s1)cc(cc2)OC(F)(F)F,C8H5F3N2OS,"InChI=1S/C8H5F3N2OS/c9-8(10,11)14-4-1-2-5-6(3-4)15-7(12)13-5/h1-3H,(H2,12,13)",234.1983096,-5.9701778799700005,-0.6966114572800004,5.27356642269,4.30616555604554
000005071,CC(C12CC3CC(C2)CC(C1)C3)N,C12H21N,"InChI=1S/C12H21N/c1-8(13)12-5-9-2-10(6-12)4-11(3-9)7-12/h8-11H,2-7,13H2,1H3",179.30184,-6.005552680535001,1.7442497817050002,7.749802462240001,1.4120601767297314
000005072,CC1CN(CCCn2c3ccccc3c3c2cccc3)CC(N1)C,C21H27N3,"InChI=1S/C21H27N3/c1-16-14-23(15-17(2)22-16)12-7-13-24-20-10-5-3-8-18(20)19-9-4-6-11-21(19)24/h3-6,8-11,16-17,22H,7,12-15H2,1-2H3",321.45918,-5.216422514085,-0.5986504711,4.617772042985,2.2507783727904
000005073,Fc1ccc2c(c1)onc2C1CCN(CC1)CCc1c(C)nc2n(c1=O)CCCC2,C23H27FN4O2,"InChI=1S/C23H27FN4O2/c1-15-18(23(29)28-10-3-2-4-21(28)25-15)9-13-27-11-7-16(8-12-27)22-19-6-5-17(24)14-20(19)30-26-22/h5-6,14,16H,2-4,7-13H2,1H3",410.4844832,-5.39329651691,-1.1292724795749995,4.264024037335,5.4296959383188295
000005074,Fc1ccc(cc1)C(=C1CCN(CC1)CCc1c(C)nc2n(c1=O)ccs2)c1ccc(cc1)F,C27H25F2N3OS,"InChI=1S/C27H25F2N3OS/c1-18-24(26(33)32-16-17-34-27(32)30-18)12-15-31-13-10-21(11-14-31)25(19-2-6-22(28)7-3-19)20-4-8-23(29)9-5-20/h2-9,16-17H,10-15H2,1H3",477.5687064,-5.461324979535,-1.3687326680150003,4.09259231152,3.0441781017677005
000005075,Oc1ccc(cc1)CNC(CC(c1ccc(cc1)O)O)C,C17H21NO3,"InChI=1S/C17H21NO3/c1-12(18-11-13-2-6-15(19)7-3-13)10-17(21)14-4-8-16(20)9-5-14/h2-9,12,17-21H,10-11H2,1H3",287.35354,-5.54568027319,-0.14966261777500023,5.396017655415,3.629874968842867
000005077,CCN(C(=O)Oc1cccc(c1)C(N(C)C)C)C,C14H22N2O2,"InChI=1S/C14H22N2O2/c1-6-16(5)14(17)18-13-9-7-8-12(10-13)11(2)15(3)4/h7-11H,6H2,1-5H3",250.33668,-5.782419323125,0.07347073963499984,5.8558900627599995,2.167271253632549
000005078,CN(CCc1c[nH]c2c1cc(cc2)Cn1cncn1)C,C15H19N5,"InChI=1S/C15H19N5/c1-19(2)6-5-13-8-17-15-4-3-12(7-14(13)15)9-20-11-16-10-18-20/h3-4,7-8,10-11,17H,5-6,9H2,1-2H3",269.34486,-5.55656482721,-0.5796025015649997,4.976962325645,4.930804881108762
000005080,O=C1CNC(=c2c(=N1)cccc2)C,C10H10N2O,"InChI=1S/C10H10N2O/c1-7-8-4-2-3-5-9(8)12-10(13)6-11-7/h2-5,11H,6H2,1H3",174.1992,-5.292614392225,-1.97010427762,3.3225101146050005,6.770719331363914
000005081,CCOC(=O)c1ncn2c1CN(C)C(=O)c1c2ccc(c1)N=[N+]=[N-],C15H14N6O3,"InChI=1S/C15H14N6O3/c1-3-24-15(23)13-12-7-20(2)14(22)10-6-9(18-19-16)4-5-11(10)21(12)8-17-13/h4-6,8H,3,7H2,1-2H3",326.31006,-6.416444594790001,-1.72520181217,4.691242782620001,2.421973119376225
000005082,CCOC(=O)C(NC(=O)C(NC(=O)C(CC(=O)NO)CC(C)C)CC(C)C)C,C19H35N3O6,"InChI=1S/C19H35N3O6/c1-7-28-19(26)13(6)20-18(25)15(9-12(4)5)21-17(24)14(8-11(2)3)10-16(23)22-27/h11-15,27H,7-10H2,1-6H3,(H,20,25)(H,21,24)(H,22,23)",401.4977,-6.22052262243,-0.3510268671450003,5.869495755285,2.4132917148577375
000005084,CN(CC1CCn2c(C1)c(C1=C(C(=O)NC1=O)c1cn(c3c1cccc3)C)c1c2cccc1)C,C28H28N4O2,"InChI=1S/C28H28N4O2/c1-30(2)15-17-12-13-32-22-11-7-5-9-19(22)24(23(32)14-17)26-25(27(33)29-28(26)34)20-16-31(3)21-10-6-4-8-18(20)21/h4-11,16-17H,12-15H2,1-3H3,(H,29,33,34)",452.54752,-4.933424109565,-2.070786402305,2.86263770726,6.407378771018146
000005086,NCCNC(=O)c1ncsc1c1cccc(c1)F,C12H12FN3OS,"InChI=1S/C12H12FN3OS/c13-9-3-1-2-8(6-9)11-10(16-7-18-11)12(17)15-5-4-14/h1-3,6-7H,4-5,14H2,(H,15,17)",265.3065832,-6.310320193095,-1.50751073177,4.802809461325,1.8242009952814957
000005087,CCCCOc1cc(ccc1OC)CC1CNC(=O)N1,C15H22N2O3,"InChI=1S/C15H22N2O3/c1-3-4-7-20-14-9-11(5-6-13(14)19-2)8-12-10-16-15(18)17-12/h5-6,9,12H,3-4,7-8,10H2,1-2H3,(H2,16,17,18)",278.34678,-5.45860384103,0.14694147926999968,5.6055453203,4.9862050252506664
000005088,SCC(C(=O)NCC(=O)NC(C(=O)OC)C(C)C)NCc1ccc(cc1)c1ccccc1,C24H31N3O4S,"InChI=1S/C24H31N3O4S/c1-16(2)22(24(30)31-3)27-21(28)14-26-23(29)20(15-32)25-13-17-9-11-19(12-10-17)18-7-5-4-6-8-18/h4-12,16,20,22,25,32H,13-15H2,1-3H3,(H,26,29)(H,27,28)",457.58564,-5.945687633425,-0.6449098256849997,5.30077780774,0.8608000859229743
000005089,COc1ccc(cc1)C12Oc3c(C2(O)C(CC1c1ccccc1)O)c(OC)cc(c3)OC,C26H26O6,"InChI=1S/C26H26O6/c1-29-18-11-9-17(10-12-18)26-20(16-7-5-4-6-8-16)15-23(27)25(26,28)24-21(31-3)13-19(30-2)14-22(24)32-26/h4-14,20,23,27-28H,15H2,1-3H3",434.48104,-5.564728242725,-0.09796098618000038,5.466767256544999,2.6532633567548474
000005090,O=C1OCC(=C1c1ccccc1)c1ccc(cc1)S(=O)(=O)C,C17H14O4S,"InChI=1S/C17H14O4S/c1-22(19,20)14-9-7-12(8-10-14)15-11-21-17(18)16(15)13-5-3-2-4-6-13/h2-10H,11H2,1H3",314.35566,-6.54161696602,-2.20956446606,4.3320524999600005,3.714265109331993
000005092,COc1ccc(cc1OC1CCCC1)C1CNC(=O)C1,C16H21NO3,"InChI=1S/C16H21NO3/c1-19-14-7-6-11(12-9-16(18)17-10-12)8-15(14)20-13-4-2-3-5-13/h6-8,12-13H,2-5,9-10H2,1H3,(H,17,18)",275.34284,-5.31710463877,0.25306588096499993,5.570170519735,4.1290805853532335
000005094,NC(=O)OCc1ncc(n1C)[N+](=O)[O-],C6H8N4O4,"InChI=1S/C6H8N4O4/c1-9-4(3-14-6(7)11)8-2-5(9)10(12)13/h2H,3H2,1H3,(H2,7,11)",200.15212,-6.90080724868,-2.266708374665,4.634098874015,5.196586825138785
000005095,CCCN(CCC)CCc1cccc2c1CC(=O)N2,C16H24N2O,"InChI=1S/C16H24N2O/c1-3-9-18(10-4-2)11-8-13-6-5-7-15-14(13)12-16(19)17-15/h5-7H,3-4,8-12H2,1-2H3,(H,17,19)",260.37456,-5.67629492143,-0.31020978957,5.36608513186,3.4023613275068243