mol_id,SMILES,formula,pce_pcbm(%),pce_pcdtbt(%),sas1(%),pce_pcbm_sas(%),pce_pcdtbt_sas(%),dipole_moment,type
000000977,O=O,O2,8.661863407723411,0.0,3.373829457410931,5.28803395031248,-3.373829457410931,2e-06,accepteur
000001712,O=C1N=c2c(=C1CNc1ccc(cc1)S(=O)(=O)Nc1ccccn1)c1scnc1cc2,C21H15N5O3S2,8.50373921165808,0.0,7.2270768124357465,1.2766623992223343,-7.2270768124357465,2.558893246009884,accepteur
000004550,O=NC1=c2cc(N(O)O)c3c(c2=NC1=O)CCCC3,C12H11N3O4,0.0,16.886417131487622,6.9556636431278,-6.9556636431278,9.930753488359823,9.74056547101096,donneur
000007801,Oc1ccc(cc1)O.O=C1C=CC(=O)C=C1,C12H10O4,7.447933266948184,0.0,6.864235410915365,0.5836978560328197,-6.864235410915365,0.7641987942649479,accepteur
000011029,[O-]C(=O)[O-].[Mg+2],CMgO3,0.0,8.546781406705682,4.8612899207499005,-4.8612899207499005,3.6854914859557812,11.21246126886461,donneur
000017851,CC[N-]c1nc(N[N+]#N)nc(n1)NC(C)C,C8H14N8,3.984197663894684,36.10864188003375,7.622431571199729,-3.638233907305045,28.48621030883402,9.255139347687585,donneur
000020778,N#[N+]Nc1nc([N-]C(C)C)nc(n1)SC,C7H11N7S,0.0,25.412759438067727,7.206302916037087,-7.206302916037087,18.206456522030642,7.416318320513286,donneur