      -----------------------------------------------------------      
     |                   =====================                   |     
     |                           x T B                           |     
     |                   =====================                   |     
     |                         S. Grimme                         |     
     |          Mulliken Center for Theoretical Chemistry        |     
     |                    University of Bonn                     |     
      -----------------------------------------------------------      

   * xtb version 6.7.1 (edcfbbe) compiled by 'albert@albert-system' on 2024-07-22

   xtb is free software: you can redistribute it and/or modify it under
   the terms of the GNU Lesser General Public License as published by
   the Free Software Foundation, either version 3 of the License, or
   (at your option) any later version.
   
   xtb is distributed in the hope that it will be useful,
   but WITHOUT ANY WARRANTY; without even the implied warranty of
   MERCHANTABILITY or FITNESS FOR A PARTICULAR PURPOSE.  See the
   GNU Lesser General Public License for more details.
   
   Cite this work as:
   * C. Bannwarth, E. Caldeweyher, S. Ehlert, A. Hansen, P. Pracht,
     J. Seibert, S. Spicher, S. Grimme, WIREs Comput. Mol. Sci., 2020, 11,
     e01493. DOI: 10.1002/wcms.1493
   
   for GFN2-xTB:
   * C. Bannwarth, S. Ehlert and S. Grimme., J. Chem. Theory Comput., 2019,
     15, 1652-1671. DOI: 10.1021/acs.jctc.8b01176
   for GFN1-xTB:
   * S. Grimme, C. Bannwarth, P. Shushkov, J. Chem. Theory Comput., 2017,
     13, 1989-2009. DOI: 10.1021/acs.jctc.7b00118
   for GFN0-xTB:
   * P. Pracht, E. Caldeweyher, S. Ehlert, S. Grimme, ChemRxiv, 2019, preprint.
     DOI: 10.26434/chemrxiv.8326202.v1
   for GFN-FF:
   * S. Spicher and S. Grimme, Angew. Chem. Int. Ed., 2020, 59, 15665-15673.
     DOI: 10.1002/anie.202004239
   
   for ALPB and GBSA implicit solvation:
   * S. Ehlert, M. Stahn, S. Spicher, S. Grimme, J. Chem. Theory Comput.,
     2021, 17, 4250-4261. DOI: 10.1021/acs.jctc.1c00471
   
   for ddCOSMO and CPCM-X implicit solvation:
   * M. Stahn, S. Ehlert, S. Grimme, J. Phys. Chem. A,
     2023, XX, XXXX-XXXX. DOI: 10.1021/acs.jpca.3c04382
   
   for DFT-D4:
   * E. Caldeweyher, C. Bannwarth and S. Grimme, J. Chem. Phys., 2017,
     147, 034112. DOI: 10.1063/1.4993215
   * E. Caldeweyher, S. Ehlert, A. Hansen, H. Neugebauer, S. Spicher,
     C. Bannwarth and S. Grimme, J. Chem. Phys., 2019, 150, 154122.
     DOI: 10.1063/1.5090222
   * E. Caldeweyher, J.-M. Mewes, S. Ehlert and S. Grimme, Phys. Chem. Chem. Phys.
     2020, 22, 8499-8512. DOI: 10.1039/D0CP00502A
   
   for sTDA-xTB:
   * S. Grimme and C. Bannwarth, J. Chem. Phys., 2016, 145, 054103.
     DOI: 10.1063/1.4959605
   
   in the mass-spec context:
   * V. Asgeirsson, C. Bauer and S. Grimme, Chem. Sci., 2017, 8, 4879.
     DOI: 10.1039/c7sc00601b
   * J. Koopman and S. Grimme, ACS Omega 2019, 4, 12, 15120-15133.
     DOI: 10.1021/acsomega.9b02011
   
   for metadynamics refer to:
   * S. Grimme, J. Chem. Theory Comput., 2019, 155, 2847-2862
     DOI: 10.1021/acs.jctc.9b00143
   
   for SPH calculations refer to:
   * S. Spicher and S. Grimme, J. Chem. Theory Comput., 2021, 17, 1701-1714
     DOI: 10.1021/acs.jctc.0c01306
   
   for ONIOM refer to:
   * C. Plett, A. Katbashev, S. Ehlert, S. Grimme, M. Bursch,
     Phys. Chem. Chem. Phys., 2023, 25, 17860-17868. DOI: 10.1039/D3CP02178E
   
   for DIPRO refer to:
   * J. Kohn, N. Gildemeister, S. Grimme, D. Fazzi, A. Hansen,
     J. Chem. Phys., 2023, just accepted.
   
   for PTB refer to:
   * S. Grimme, M. Mueller, A. Hansen, J. Chem. Phys., 2023, 158, 124111.
     DOI: 10.1063/5.0137838
   
   with help from (in alphabetical order)
   P. Atkinson, C. Bannwarth, F. Bohle, G. Brandenburg, E. Caldeweyher
   M. Checinski, S. Dohm, S. Ehlert, S. Ehrlich, I. Gerasimov, C. Hölzer
   A. Katbashev, J. Kohn, J. Koopman, C. Lavigne, S. Lehtola, F. März, M. Müller,
   F. Musil, H. Neugebauer, J. Pisarek, C. Plett, P. Pracht, F. Pultar,
   J. Seibert, P. Shushkov, S. Spicher, M. Stahn, M. Steiner, T. Strunk,
   J. Stückrath, T. Rose, and J. Unsleber
   
 * started run on 2024/08/07 at 21:38:25.805     
   ID    Z sym.   atoms
    1    6 C      1-3, 5, 6
    2    8 O      4, 7
    3    1 H      8-15

           -------------------------------------------------
          |                Calculation Setup                |
           -------------------------------------------------

          program call               : xtb crest_best.xyz --gfn 2 --alpb toluene --opt vtight -c 0 --iterations 40
          coordinate file            : crest_best.xyz
          omp threads                :                     8


           -------------------------------------------------
          |                 G F N 2 - x T B                 |
           -------------------------------------------------

        Reference                      10.1021/acs.jctc.8b01176
      * Hamiltonian:
        H0-scaling (s, p, d)           1.850000    2.230000    2.230000
        zeta-weighting                 0.500000
      * Dispersion:
        s8                             2.700000
        a1                             0.520000
        a2                             5.000000
        s9                             5.000000
      * Repulsion:
        kExp                           1.500000    1.000000
        rExp                           1.000000
      * Coulomb:
        alpha                          2.000000
        third order                    shell-resolved
        anisotropic                    true
        a3                             3.000000
        a5                             4.000000
        cn-shift                       1.200000
        cn-exp                         4.000000
        max-rad                        5.000000

      * Solvation model:               ALPB
        Solvent                        toluene
        Parameter file                 internal GFN2-xTB/ALPB
        Dielectric constant                7.0000E+00
        Reference state                gsolv [1 M gas/solution]
        Free energy shift                  2.2081E-03 Eh       1.3856E+00 kcal/mol
        Temperature                        2.9815E+02 K
        Density                            8.6700E-01 kg/L
        Solvent mass                       7.8110E+01 g/mol
        Interaction kernel             P16
        Born radius scaling (c1)           1.7172E+00
        Born radii integrator          GBOBC
        Born offset                        0.0000E+00 a0       0.0000E+00 AA
        H-bond correction              false
        Ion screening                  false
        Surface tension                    1.0000E-05 Eh       1.5569E+01 dyn/cm
        Grid points                               230 per atom

          ...................................................
          :                      SETUP                      :
          :.................................................:
          :  # basis functions                  36          :
          :  # atomic orbitals                  36          :
          :  # shells                           22          :
          :  # electrons                        40          :
          :  max. iterations                    40          :
          :  Hamiltonian                  GFN2-xTB          :
          :  restarted?                      false          :
          :  GBSA solvation                   true          :
          :  PC potential                    false          :
          :  electronic temp.          300.0000000     K    :
          :  accuracy                    1.0000000          :
          :  -> integral cutoff          0.2500000E+02      :
          :  -> integral neglect         0.1000000E-07      :
          :  -> SCF convergence          0.1000000E-05 Eh   :
          :  -> wf. convergence          0.1000000E-03 e    :
          :  Broyden damping             0.4000000          :
          :  net charge                          0          :
          :  unpaired electrons                  0          :
          ...................................................

 iter      E             dE          RMSdq      gap      omega  full diag
   1    -23.0549795 -0.230550E+02  0.464E+00    4.07       0.0  T
   2    -23.1037855 -0.488059E-01  0.226E+00    3.18       1.0  T
   3    -23.1058654 -0.207990E-02  0.139E+00    3.47       1.0  T
   4    -23.1096065 -0.374110E-02  0.189E-01    3.18       1.0  T
   5    -23.1097349 -0.128434E-03  0.921E-02    3.23       1.0  T
   6    -23.1097508 -0.159166E-04  0.422E-02    3.23       1.0  T
   7    -23.1097558 -0.498090E-05  0.155E-02    3.23       1.7  T
   8    -23.1097564 -0.554382E-06  0.462E-03    3.23       5.6  T
   9    -23.1097564 -0.583366E-07  0.194E-03    3.23      13.3  T
  10    -23.1097564 -0.465402E-08  0.499E-04    3.23      51.7  T
  11    -23.1097564 -0.340542E-09  0.122E-04    3.23     211.4  T

   *** convergence criteria satisfied after 11 iterations ***

         #    Occupation            Energy/Eh            Energy/eV
      -------------------------------------------------------------
         1        2.0000           -0.7459673             -20.2988
       ...           ...                  ...                  ...
        14        2.0000           -0.4947469             -13.4627
        15        2.0000           -0.4928329             -13.4107
        16        2.0000           -0.4676257             -12.7247
        17        2.0000           -0.4519071             -12.2970
        18        2.0000           -0.4420498             -12.0288
        19        2.0000           -0.4292404             -11.6802
        20        2.0000           -0.4132342             -11.2447 (HOMO)
        21                         -0.2943841              -8.0106 (LUMO)
        22                         -0.1197226              -3.2578
        23                          0.0358729               0.9762
        24                          0.0571989               1.5565
        25                          0.0939467               2.5564
       ...                                ...                  ...
        36                          0.6127845              16.6747
      -------------------------------------------------------------
                  HL-Gap            0.1188502 Eh            3.2341 eV
             Fermi-level           -0.3538091 Eh           -9.6276 eV

 SCC (total)                   0 d,  0 h,  0 min,  0.011 sec
 SCC setup                      ...        0 min,  0.000 sec (  3.713%)
 Dispersion                     ...        0 min,  0.000 sec (  2.181%)
 classical contributions        ...        0 min,  0.000 sec (  0.766%)
 integral evaluation            ...        0 min,  0.001 sec (  9.598%)
 iterations                     ...        0 min,  0.008 sec ( 69.714%)
 molecular gradient             ...        0 min,  0.001 sec ( 12.415%)
 printout                       ...        0 min,  0.000 sec (  1.277%)

         :::::::::::::::::::::::::::::::::::::::::::::::::::::
         ::                     SUMMARY                     ::
         :::::::::::::::::::::::::::::::::::::::::::::::::::::
         :: total energy             -22.863525427781 Eh    ::
         :: total w/o Gsasa/hb       -22.855535097471 Eh    ::
         :: gradient norm              0.052426742666 Eh/a0 ::
         :: HOMO-LUMO gap              3.234077847755 eV    ::
         ::.................................................::
         :: SCC energy               -23.109743049537 Eh    ::
         :: -> isotropic ES            0.040200687586 Eh    ::
         :: -> anisotropic ES          0.001106459350 Eh    ::
         :: -> anisotropic XC          0.004305436790 Eh    ::
         :: -> dispersion             -0.008670280296 Eh    ::
         :: -> Gsolv                  -0.009750895473 Eh    ::
         ::    -> Gelec               -0.001760565163 Eh    ::
         ::    -> Gsasa               -0.010198473448 Eh    ::
         ::    -> Ghb                  0.000000000000 Eh    ::
         ::    -> Gshift               0.002208143139 Eh    ::
         :: repulsion energy           0.246217621756 Eh    ::
         :: add. restraining           0.000000000000 Eh    ::
         :: total charge               0.000000000000 e     ::
         :::::::::::::::::::::::::::::::::::::::::::::::::::::

      ----------------------------------------------------------- 
     |                   =====================                   |
     |                        A N C O P T                        |
     |                   =====================                   |
     |               Approximate Normal Coordinate               |
     |                Rational Function Optimizer                |
      ----------------------------------------------------------- 
      ----------------------------------------------------------- 
     |                   =====================                   |
     |                        A N C O P T                        |
     |                   =====================                   |
     |               Approximate Normal Coordinate               |
     |                Rational Function Optimizer                |
      ----------------------------------------------------------- 

          ...................................................
          :                      SETUP                      :
          :.................................................:
          :   optimization level         verytight          :
          :   max. optcycles                   300          :
          :   ANC micro-cycles                  20          :
          :   degrees of freedom                39          :
          :.................................................:
          :   RF solver                   davidson          :
          :   write xtbopt.log                true          :
          :   linear?                        false          :
          :   energy convergence         0.1000000E-06 Eh   :
          :   grad. convergence          0.2000000E-03 Eh/α :
          :   maxmium RF displ.          1.0000000          :
          :   Hlow (freq-cutoff)         0.1000000E-01      :
          :   Hmax (freq-cutoff)         5.0000000          :
          :   S6 in model hess.         20.0000000          :
          ...................................................

generating ANC from exact Hessian ...
Using Lindh-Hessian (1995)
 Shifting diagonal of input Hessian by   6.513119948763226E-003
 Lowest  eigenvalues of input Hessian
    0.000000    0.000000    0.000000    0.000000    0.000000    0.000000
    0.010000    0.013158    0.013971    0.018449    0.021342    0.025922
    0.045752    0.052242    0.054143    0.060775    0.065098    0.071059
 Highest eigenvalues
    1.217003    1.254217    1.275587    1.421807    1.833011    2.247122
 

........................................................................
.............................. CYCLE    1 ..............................
........................................................................

 iter      E             dE          RMSdq      gap      omega  full diag
   1    -23.1097564 -0.231098E+02  0.397E-05    3.23       0.0  T
   2    -23.1097564 -0.959233E-12  0.222E-05    3.23    1160.8  T
   3    -23.1097564 -0.888178E-13  0.644E-06    3.23    4010.0  T
     SCC iter.                  ...        0 min,  0.001 sec
     gradient                   ...        0 min,  0.006 sec
 * total energy  :   -22.8635254 Eh     change       -0.4082423E-10 Eh
   gradient norm :     0.0524271 Eh/α   predicted     0.0000000E+00 (-100.00%)
   displ. norm   :     0.3606086 α      lambda       -0.8527575E-02
   maximum displ.:     0.1523315 α      in ANC's #3, #4, #8, ...

........................................................................
.............................. CYCLE    2 ..............................
........................................................................

 iter      E             dE          RMSdq      gap      omega  full diag
   1    -23.1155812 -0.231156E+02  0.336E-01    3.23       0.0  T
   2    -23.1156063 -0.251209E-04  0.203E-01    3.25       1.0  T
   3    -23.1156066 -0.237005E-06  0.208E-02    3.25       1.2  T
   4    -23.1156099 -0.335231E-05  0.771E-03    3.25       3.3  T
   5    -23.1156101 -0.184661E-06  0.414E-03    3.25       6.2  T
   6    -23.1156101 -0.368826E-07  0.173E-03    3.25      14.9  T
   7    -23.1156101 -0.697600E-08  0.491E-04    3.25      52.6  T
   8    -23.1156101 -0.485588E-09  0.246E-04    3.25     105.0  T
     SCC iter.                  ...        0 min,  0.008 sec
     gradient                   ...        0 min,  0.004 sec
 * total energy  :   -22.8692238 Eh     change       -0.5698332E-02 Eh
   gradient norm :     0.0235957 Eh/α   predicted    -0.4818244E-02 ( -15.44%)
   displ. norm   :     0.2992313 α      lambda       -0.2701408E-02
   maximum displ.:     0.1609879 α      in ANC's #3, #4, #2, ...

........................................................................
.............................. CYCLE    3 ..............................
........................................................................

 iter      E             dE          RMSdq      gap      omega  full diag
   1    -23.1193040 -0.231193E+02  0.239E-01    3.26       0.0  T
   2    -23.1193130 -0.896902E-05  0.144E-01    3.27       1.0  T
   3    -23.1193102  0.280644E-05  0.206E-02    3.26       1.3  T
   4    -23.1193146 -0.444378E-05  0.486E-03    3.27       5.3  T
   5    -23.1193147 -0.721019E-07  0.234E-03    3.27      11.0  T
   6    -23.1193147 -0.657156E-08  0.979E-04    3.27      26.4  T
   7    -23.1193147 -0.108875E-08  0.245E-04    3.27     105.3  T
     SCC iter.                  ...        0 min,  0.006 sec
     gradient                   ...        0 min,  0.004 sec
 * total energy  :   -22.8704411 Eh     change       -0.1217377E-02 Eh
   gradient norm :     0.0243084 Eh/α   predicted    -0.1471653E-02 (  20.89%)
   displ. norm   :     0.1571891 α      lambda       -0.8731304E-03
   maximum displ.:     0.0850149 α      in ANC's #1, #3, #5, ...

........................................................................
.............................. CYCLE    4 ..............................
........................................................................

 iter      E             dE          RMSdq      gap      omega  full diag
   1    -23.1220302 -0.231220E+02  0.173E-01    3.35       0.0  T
   2    -23.1220354 -0.513808E-05  0.103E-01    3.34       1.0  T
   3    -23.1220348  0.553354E-06  0.150E-02    3.34       1.7  T
   4    -23.1220364 -0.155456E-05  0.429E-03    3.34       6.0  T
   5    -23.1220364 -0.481409E-07  0.190E-03    3.34      13.6  T
   6    -23.1220364 -0.288970E-08  0.893E-04    3.34      28.9  T
   7    -23.1220364 -0.309479E-08  0.251E-04    3.34     102.9  T
     SCC iter.                  ...        0 min,  0.006 sec
     gradient                   ...        0 min,  0.002 sec
 * total energy  :   -22.8708720 Eh     change       -0.4308717E-03 Eh
   gradient norm :     0.0142514 Eh/α   predicted    -0.4473547E-03 (   3.83%)
   displ. norm   :     0.1062206 α      lambda       -0.4614228E-03
   maximum displ.:     0.0696940 α      in ANC's #1, #3, #2, ...

........................................................................
.............................. CYCLE    5 ..............................
........................................................................

 iter      E             dE          RMSdq      gap      omega  full diag
   1    -23.1233812 -0.231234E+02  0.864E-02    3.37       0.0  T
   2    -23.1233829 -0.170621E-05  0.516E-02    3.37       1.0  T
   3    -23.1233825  0.418658E-06  0.818E-03    3.37       3.2  T
   4    -23.1233831 -0.685095E-06  0.171E-03    3.37      15.1  T
   5    -23.1233831 -0.751253E-08  0.892E-04    3.37      28.9  T
   6    -23.1233832 -0.161763E-08  0.327E-04    3.37      79.0  T
     SCC iter.                  ...        0 min,  0.006 sec
     gradient                   ...        0 min,  0.003 sec
 * total energy  :   -22.8712073 Eh     change       -0.3352800E-03 Eh
   gradient norm :     0.0063196 Eh/α   predicted    -0.2333146E-03 ( -30.41%)
   displ. norm   :     0.2848347 α      lambda       -0.5660917E-03
   maximum displ.:     0.1685982 α      in ANC's #1, #3, #5, ...

........................................................................
.............................. CYCLE    6 ..............................
........................................................................

 iter      E             dE          RMSdq      gap      omega  full diag
   1    -23.1217332 -0.231217E+02  0.287E-01    3.37       0.0  T
   2    -23.1217411 -0.790888E-05  0.169E-01    3.38       1.0  T
   3    -23.1217380  0.317300E-05  0.206E-02    3.38       1.3  T
   4    -23.1217429 -0.495468E-05  0.413E-03    3.38       6.3  T
   5    -23.1217430 -0.483132E-07  0.225E-03    3.38      11.5  T
   6    -23.1217430 -0.734630E-08  0.113E-03    3.38      22.9  T
   7    -23.1217430 -0.280250E-08  0.319E-04    3.38      81.0  T
   8    -23.1217430 -0.295223E-09  0.125E-04    3.38     207.1  T
     SCC iter.                  ...        0 min,  0.006 sec
     gradient                   ...        0 min,  0.001 sec
 * total energy  :   -22.8716319 Eh     change       -0.4245732E-03 Eh
   gradient norm :     0.0061368 Eh/α   predicted    -0.3060084E-03 ( -27.93%)
   displ. norm   :     0.3775193 α      lambda       -0.5933805E-03
   maximum displ.:     0.2428048 α      in ANC's #1, #5, #3, ...

........................................................................
.............................. CYCLE    7 ..............................
........................................................................

 iter      E             dE          RMSdq      gap      omega  full diag
   1    -23.1190764 -0.231191E+02  0.423E-01    3.35       0.0  T
   2    -23.1190973 -0.209099E-04  0.250E-01    3.36       1.0  T
   3    -23.1190915  0.581635E-05  0.290E-02    3.36       1.0  T
   4    -23.1191010 -0.947216E-05  0.640E-03    3.37       4.0  T
   5    -23.1191011 -0.183034E-06  0.346E-03    3.36       7.5  T
   6    -23.1191012 -0.219821E-07  0.177E-03    3.37      14.6  T
   7    -23.1191012 -0.527470E-08  0.506E-04    3.36      51.0  T
   8    -23.1191012 -0.868308E-09  0.198E-04    3.37     130.4  T
     SCC iter.                  ...        0 min,  0.009 sec
     gradient                   ...        0 min,  0.004 sec
 * total energy  :   -22.8719979 Eh     change       -0.3659901E-03 Eh
   gradient norm :     0.0171360 Eh/α   predicted    -0.3389787E-03 (  -7.38%)
   displ. norm   :     0.2399012 α      lambda       -0.6440348E-03
   maximum displ.:     0.1723907 α      in ANC's #1, #5, #2, ...

........................................................................
.............................. CYCLE    8 ..............................
........................................................................

 iter      E             dE          RMSdq      gap      omega  full diag
   1    -23.1216406 -0.231216E+02  0.248E-01    3.39       0.0  T
   2    -23.1216437 -0.309248E-05  0.147E-01    3.40       1.0  T
   3    -23.1216424  0.135125E-05  0.133E-02    3.39       1.9  T
   4    -23.1216447 -0.234635E-05  0.324E-03    3.40       8.0  T
   5    -23.1216447 -0.117739E-07  0.176E-03    3.40      14.7  T
   6    -23.1216447 -0.392103E-08  0.529E-04    3.40      48.8  T
   7    -23.1216447 -0.102545E-08  0.208E-04    3.40     124.3  T
     SCC iter.                  ...        0 min,  0.012 sec
     gradient                   ...        0 min,  0.001 sec
 * total energy  :   -22.8725025 Eh     change       -0.5046611E-03 Eh
   gradient norm :     0.0101174 Eh/α   predicted    -0.3405490E-03 ( -32.52%)
   displ. norm   :     0.3604708 α      lambda       -0.7413920E-03
   maximum displ.:     0.2221407 α      in ANC's #1, #5, #2, ...

........................................................................
.............................. CYCLE    9 ..............................
........................................................................

 iter      E             dE          RMSdq      gap      omega  full diag
   1    -23.1232237 -0.231232E+02  0.404E-01    3.41       0.0  T
   2    -23.1232349 -0.111776E-04  0.239E-01    3.41       1.0  T
   3    -23.1232335  0.143952E-05  0.184E-02    3.41       1.4  T
   4    -23.1232373 -0.388231E-05  0.561E-03    3.41       4.6  T
   5    -23.1232374 -0.646075E-07  0.318E-03    3.41       8.1  T
   6    -23.1232374 -0.169786E-07  0.115E-03    3.41      22.4  T
   7    -23.1232374 -0.339493E-08  0.350E-04    3.41      73.9  T
   8    -23.1232374 -0.377121E-09  0.180E-04    3.41     143.4  T
     SCC iter.                  ...        0 min,  0.014 sec
     gradient                   ...        0 min,  0.001 sec
 * total energy  :   -22.8730251 Eh     change       -0.5226306E-03 Eh
   gradient norm :     0.0097975 Eh/α   predicted    -0.4188601E-03 ( -19.86%)
   displ. norm   :     0.2541492 α      lambda       -0.7108535E-03
   maximum displ.:     0.1859720 α      in ANC's #2, #1, #26, ...

........................................................................
.............................. CYCLE   10 ..............................
........................................................................

 iter      E             dE          RMSdq      gap      omega  full diag
   1    -23.1305781 -0.231306E+02  0.212E-01    3.46       0.0  T
   2    -23.1305801 -0.201497E-05  0.126E-01    3.45       1.0  T
   3    -23.1305803 -0.220916E-06  0.710E-03    3.46       3.6  T
   4    -23.1305807 -0.385223E-06  0.306E-03    3.45       8.4  T
   5    -23.1305807 -0.137281E-07  0.150E-03    3.46      17.3  T
   6    -23.1305807 -0.333583E-08  0.466E-04    3.45      55.4  T
   7    -23.1305807 -0.526899E-09  0.197E-04    3.45     131.4  T
     SCC iter.                  ...        0 min,  0.007 sec
     gradient                   ...        0 min,  0.003 sec
 * total energy  :   -22.8730888 Eh     change       -0.6364957E-04 Eh
   gradient norm :     0.0132001 Eh/α   predicted    -0.3783878E-03 ( 494.49%)
   displ. norm   :     0.3860375 α      lambda       -0.9224192E-03
   maximum displ.:     0.2382918 α      in ANC's #1, #5, #2, ...

........................................................................
.............................. CYCLE   11 ..............................
........................................................................

 iter      E             dE          RMSdq      gap      omega  full diag
   1    -23.1227946 -0.231228E+02  0.483E-01    3.39       0.0  T
   2    -23.1228280 -0.334415E-04  0.288E-01    3.40       1.0  T
   3    -23.1228228  0.520310E-05  0.300E-02    3.40       1.0  T
   4    -23.1228324 -0.964234E-05  0.755E-03    3.41       3.4  T
   5    -23.1228327 -0.254771E-06  0.431E-03    3.40       6.0  T
   6    -23.1228327 -0.453234E-07  0.205E-03    3.41      12.6  T
   7    -23.1228328 -0.685871E-08  0.496E-04    3.40      52.1  T
   8    -23.1228328 -0.514373E-09  0.210E-04    3.40     123.1  T
     SCC iter.                  ...        0 min,  0.008 sec
     gradient                   ...        0 min,  0.006 sec
 * total energy  :   -22.8734047 Eh     change       -0.3159047E-03 Eh
   gradient norm :     0.0222153 Eh/α   predicted    -0.5299370E-03 (  67.75%)
   displ. norm   :     0.1779955 α      lambda       -0.4379982E-03
   maximum displ.:     0.0979261 α      in ANC's #5, #1, #2, ...

........................................................................
.............................. CYCLE   12 ..............................
........................................................................

 iter      E             dE          RMSdq      gap      omega  full diag
   1    -23.1260509 -0.231261E+02  0.208E-01    3.46       0.0  T
   2    -23.1260651 -0.142019E-04  0.124E-01    3.45       1.0  T
   3    -23.1260636  0.154253E-05  0.186E-02    3.45       1.4  T
   4    -23.1260664 -0.283229E-05  0.407E-03    3.44       6.3  T
   5    -23.1260665 -0.103088E-06  0.203E-03    3.45      12.7  T
   6    -23.1260665 -0.171095E-07  0.913E-04    3.44      28.3  T
   7    -23.1260665 -0.104291E-08  0.266E-04    3.44      97.1  T
     SCC iter.                  ...        0 min,  0.006 sec
     gradient                   ...        0 min,  0.003 sec
 * total energy  :   -22.8735841 Eh     change       -0.1794272E-03 Eh
   gradient norm :     0.0049280 Eh/α   predicted    -0.2259388E-03 (  25.92%)
   displ. norm   :     0.1108779 α      lambda       -0.1332829E-03
   maximum displ.:     0.0650622 α      in ANC's #1, #2, #26, ...

........................................................................
.............................. CYCLE   13 ..............................
........................................................................

 iter      E             dE          RMSdq      gap      omega  full diag
   1    -23.1259382 -0.231259E+02  0.131E-01    3.44       0.0  T
   2    -23.1259389 -0.732993E-06  0.777E-02    3.44       1.0  T
   3    -23.1259388  0.825179E-07  0.537E-03    3.44       4.8  T
   4    -23.1259391 -0.285682E-06  0.174E-03    3.44      14.9  T
   5    -23.1259391 -0.696878E-08  0.878E-04    3.44      29.4  T
   6    -23.1259391 -0.137856E-08  0.390E-04    3.44      66.3  T
     SCC iter.                  ...        0 min,  0.006 sec
     gradient                   ...        0 min,  0.003 sec
 * total energy  :   -22.8736980 Eh     change       -0.1138510E-03 Eh
   gradient norm :     0.0055939 Eh/α   predicted    -0.6746166E-04 ( -40.75%)
   displ. norm   :     0.4533323 α      lambda       -0.3909758E-03
   maximum displ.:     0.2842814 α      in ANC's #1, #2, #5, ...

........................................................................
.............................. CYCLE   14 ..............................
........................................................................

 iter      E             dE          RMSdq      gap      omega  full diag
   1    -23.1221416 -0.231221E+02  0.563E-01    3.45       0.0  T
   2    -23.1221489 -0.729328E-05  0.333E-01    3.45       1.0  T
   3    -23.1221499 -0.964247E-06  0.150E-02    3.45       1.7  T
   4    -23.1221519 -0.201565E-05  0.704E-03    3.45       3.7  T
   5    -23.1221520 -0.553457E-07  0.346E-03    3.45       7.5  T
   6    -23.1221520 -0.326776E-07  0.777E-04    3.45      33.2  T
   7    -23.1221520 -0.105936E-08  0.338E-04    3.45      76.3  T
     SCC iter.                  ...        0 min,  0.005 sec
     gradient                   ...        0 min,  0.001 sec
 * total energy  :   -22.8737660 Eh     change       -0.6804645E-04 Eh
   gradient norm :     0.0145422 Eh/α   predicted    -0.2356697E-03 ( 246.34%)
   displ. norm   :     0.1449319 α      lambda       -0.3579849E-03
   maximum displ.:     0.0960270 α      in ANC's #1, #2, #5, ...

........................................................................
.............................. CYCLE   15 ..............................
........................................................................

 iter      E             dE          RMSdq      gap      omega  full diag
   1    -23.1263063 -0.231263E+02  0.180E-01    3.47       0.0  T
   2    -23.1263087 -0.242270E-05  0.107E-01    3.46       1.0  T
   3    -23.1263081  0.627845E-06  0.967E-03    3.46       2.7  T
   4    -23.1263092 -0.111638E-05  0.254E-03    3.46      10.2  T
   5    -23.1263093 -0.153685E-07  0.150E-03    3.46      17.2  T
   6    -23.1263093 -0.270726E-08  0.419E-04    3.46      61.6  T
   7    -23.1263093 -0.442071E-09  0.133E-04    3.46     194.3  T
     SCC iter.                  ...        0 min,  0.006 sec
     gradient                   ...        0 min,  0.006 sec
 * total energy  :   -22.8739145 Eh     change       -0.1485201E-03 Eh
   gradient norm :     0.0040588 Eh/α   predicted    -0.1827518E-03 (  23.05%)
   displ. norm   :     0.0903536 α      lambda       -0.5036403E-04
   maximum displ.:     0.0562542 α      in ANC's #1, #5, #26, ...

........................................................................
.............................. CYCLE   16 ..............................
........................................................................

 iter      E             dE          RMSdq      gap      omega  full diag
   1    -23.1263332 -0.231263E+02  0.117E-01    3.47       0.0  T
   2    -23.1263334 -0.245869E-06  0.693E-02    3.47       1.0  T
   3    -23.1263335 -0.790472E-07  0.252E-03    3.47      10.2  T
   4    -23.1263335 -0.373043E-07  0.141E-03    3.47      18.3  T
   5    -23.1263335 -0.327225E-08  0.585E-04    3.47      44.1  T
   6    -23.1263335 -0.856108E-09  0.173E-04    3.47     149.3  T
     SCC iter.                  ...        0 min,  0.007 sec
     gradient                   ...        0 min,  0.001 sec
 * total energy  :   -22.8739583 Eh     change       -0.4375285E-04 Eh
   gradient norm :     0.0034189 Eh/α   predicted    -0.2538844E-04 ( -41.97%)
   displ. norm   :     0.2351813 α      lambda       -0.1091901E-03
   maximum displ.:     0.1396718 α      in ANC's #1, #5, #26, ...

........................................................................
.............................. CYCLE   17 ..............................
........................................................................

 iter      E             dE          RMSdq      gap      omega  full diag
   1    -23.1258064 -0.231258E+02  0.319E-01    3.48       0.0  T
   2    -23.1258083 -0.189277E-05  0.189E-01    3.48       1.0  T
   3    -23.1258090 -0.704985E-06  0.640E-03    3.48       4.0  T
   4    -23.1258092 -0.173855E-06  0.373E-03    3.48       6.9  T
   5    -23.1258092 -0.113779E-07  0.146E-03    3.48      17.6  T
   6    -23.1258092 -0.950769E-08  0.476E-04    3.48      54.2  T
   7    -23.1258092 -0.535376E-09  0.166E-04    3.48     155.7  T
     SCC iter.                  ...        0 min,  0.007 sec
     gradient                   ...        0 min,  0.002 sec
 * total energy  :   -22.8740050 Eh     change       -0.4668294E-04 Eh
   gradient norm :     0.0053623 Eh/α   predicted    -0.5761295E-04 (  23.41%)
   displ. norm   :     0.0313572 α      lambda       -0.3817858E-04
   maximum displ.:     0.0196512 α      in ANC's #2, #1, #5, ...

........................................................................
.............................. CYCLE   18 ..............................
........................................................................

 iter      E             dE          RMSdq      gap      omega  full diag
   1    -23.1270028 -0.231270E+02  0.371E-02    3.50       0.0  T
   2    -23.1270034 -0.534748E-06  0.224E-02    3.49       1.2  T
   3    -23.1270033  0.773510E-07  0.392E-03    3.49       6.6  T
   4    -23.1270034 -0.132557E-06  0.779E-04    3.49      33.1  T
   5    -23.1270034 -0.355075E-08  0.421E-04    3.49      61.4  T
     SCC iter.                  ...        0 min,  0.005 sec
     gradient                   ...        0 min,  0.002 sec
 * total energy  :   -22.8740235 Eh     change       -0.1854351E-04 Eh
   gradient norm :     0.0013968 Eh/α   predicted    -0.1910696E-04 (   3.04%)
   displ. norm   :     0.0487122 α      lambda       -0.1181977E-04
   maximum displ.:     0.0248093 α      in ANC's #26, #5, #3, ...

........................................................................
.............................. CYCLE   19 ..............................
........................................................................

 iter      E             dE          RMSdq      gap      omega  full diag
   1    -23.1273385 -0.231273E+02  0.737E-02    3.49       0.0  T
   2    -23.1273388 -0.322227E-06  0.438E-02    3.49       1.0  T
   3    -23.1273388 -0.358397E-07  0.234E-03    3.49      11.0  T
   4    -23.1273388 -0.323402E-07  0.980E-04    3.49      26.3  T
   5    -23.1273388 -0.232564E-08  0.438E-04    3.49      58.9  T
     SCC iter.                  ...        0 min,  0.006 sec
     gradient                   ...        0 min,  0.003 sec
 * total energy  :   -22.8740307 Eh     change       -0.7191008E-05 Eh
   gradient norm :     0.0026782 Eh/α   predicted    -0.5915531E-05 ( -17.74%)
   displ. norm   :     0.0373614 α      lambda       -0.8525731E-05
   maximum displ.:     0.0179241 α      in ANC's #26, #5, #1, ...

........................................................................
.............................. CYCLE   20 ..............................
........................................................................

 iter      E             dE          RMSdq      gap      omega  full diag
   1    -23.1272022 -0.231272E+02  0.573E-02    3.50       0.0  T
   2    -23.1272022 -0.643163E-07  0.338E-02    3.50       1.0  T
   3    -23.1272022 -0.289662E-07  0.108E-03    3.50      24.0  T
   4    -23.1272022 -0.149133E-08  0.544E-04    3.50      47.5  T
   5    -23.1272022 -0.320000E-09  0.215E-04    3.50     120.2  T
     SCC iter.                  ...        0 min,  0.003 sec
     gradient                   ...        0 min,  0.002 sec
 * total energy  :   -22.8740364 Eh     change       -0.5728730E-05 Eh
   gradient norm :     0.0014914 Eh/α   predicted    -0.4268772E-05 ( -25.48%)
   displ. norm   :     0.0273055 α      lambda       -0.5507798E-05
   maximum displ.:     0.0149830 α      in ANC's #3, #26, #1, ...
 * RMSD in coord.:     0.7109027 α      energy gain  -0.1051101E-01 Eh

generating ANC from exact Hessian ...
Using Lindh-Hessian (1995)
 Shifting diagonal of input Hessian by   6.507301883818564E-003
 Lowest  eigenvalues of input Hessian
    0.000000    0.000000    0.000000    0.000000    0.000000    0.000000
    0.010000    0.011356    0.014643    0.018447    0.019243    0.028062
    0.048575    0.052939    0.057286    0.060314    0.071440    0.074936
 Highest eigenvalues
    1.218017    1.241673    1.336233    1.474354    1.975046    2.236527
 

........................................................................
.............................. CYCLE   21 ..............................
........................................................................

 iter      E             dE          RMSdq      gap      omega  full diag
   1    -23.1272197 -0.231272E+02  0.351E-02    3.50       0.0  T
   2    -23.1272197 -0.435845E-07  0.207E-02    3.50       1.2  T
   3    -23.1272197 -0.109883E-07  0.896E-04    3.50      28.8  T
   4    -23.1272197 -0.234012E-08  0.434E-04    3.50      59.4  T
     SCC iter.                  ...        0 min,  0.002 sec
     gradient                   ...        0 min,  0.001 sec
 * total energy  :   -22.8740422 Eh     change       -0.5778995E-05 Eh
   gradient norm :     0.0009335 Eh/α   predicted     0.0000000E+00 (-100.00%)
   displ. norm   :     0.0303572 α      lambda       -0.7018319E-05
   maximum displ.:     0.0261240 α      in ANC's #1, #3, #2, ...

........................................................................
.............................. CYCLE   22 ..............................
........................................................................

 iter      E             dE          RMSdq      gap      omega  full diag
   1    -23.1270203 -0.231270E+02  0.245E-02    3.50       0.0  T
   2    -23.1270204 -0.356362E-07  0.146E-02    3.50       1.8  T
   3    -23.1270203  0.646298E-08  0.128E-03    3.50      20.1  T
   4    -23.1270204 -0.158361E-07  0.400E-04    3.50      64.5  T
   5    -23.1270204 -0.754881E-10  0.163E-04    3.50     158.0  T
     SCC iter.                  ...        0 min,  0.004 sec
     gradient                   ...        0 min,  0.003 sec
 * total energy  :   -22.8740459 Eh     change       -0.3651771E-05 Eh
   gradient norm :     0.0010893 Eh/α   predicted    -0.3509862E-05 (  -3.89%)
   displ. norm   :     0.0294476 α      lambda       -0.6604247E-05
   maximum displ.:     0.0241318 α      in ANC's #1, #3, #6, ...

........................................................................
.............................. CYCLE   23 ..............................
........................................................................

 iter      E             dE          RMSdq      gap      omega  full diag
   1    -23.1268787 -0.231269E+02  0.207E-02    3.50       0.0  T
   2    -23.1268787 -0.251962E-07  0.122E-02    3.50       2.1  T
   3    -23.1268787 -0.505291E-08  0.750E-04    3.50      34.4  T
   4    -23.1268787 -0.267548E-08  0.394E-04    3.50      65.6  T
     SCC iter.                  ...        0 min,  0.006 sec
     gradient                   ...        0 min,  0.001 sec
 * total energy  :   -22.8740524 Eh     change       -0.6517961E-05 Eh
   gradient norm :     0.0007650 Eh/α   predicted    -0.3304911E-05 ( -49.30%)
   displ. norm   :     0.0339670 α      lambda       -0.4101575E-05
   maximum displ.:     0.0286426 α      in ANC's #1, #3, #4, ...

........................................................................
.............................. CYCLE   24 ..............................
........................................................................

 iter      E             dE          RMSdq      gap      omega  full diag
   1    -23.1270269 -0.231270E+02  0.174E-02    3.50       0.0  T
   2    -23.1270269 -0.210141E-07  0.103E-02    3.50       2.5  T
   3    -23.1270269 -0.326212E-08  0.698E-04    3.50      37.0  T
   4    -23.1270269 -0.229637E-08  0.329E-04    3.50      78.6  T
     SCC iter.                  ...        0 min,  0.002 sec
     gradient                   ...        0 min,  0.005 sec
 * total energy  :   -22.8740572 Eh     change       -0.4857691E-05 Eh
   gradient norm :     0.0005889 Eh/α   predicted    -0.2050457E-05 ( -57.79%)
   displ. norm   :     0.0404754 α      lambda       -0.3701594E-05
   maximum displ.:     0.0337299 α      in ANC's #1, #3, #4, ...

........................................................................
.............................. CYCLE   25 ..............................
........................................................................

 iter      E             dE          RMSdq      gap      omega  full diag
   1    -23.1270879 -0.231271E+02  0.191E-02    3.50       0.0  T
   2    -23.1270880 -0.146655E-07  0.114E-02    3.50       2.3  T
   3    -23.1270880 -0.890328E-09  0.753E-04    3.50      34.3  T
   4    -23.1270880 -0.494579E-08  0.333E-04    3.50      77.5  T
     SCC iter.                  ...        0 min,  0.008 sec
     gradient                   ...        0 min,  0.002 sec
 * total energy  :   -22.8740620 Eh     change       -0.4749150E-05 Eh
   gradient norm :     0.0005063 Eh/α   predicted    -0.1852910E-05 ( -60.98%)
   displ. norm   :     0.0403605 α      lambda       -0.3124974E-05
   maximum displ.:     0.0347004 α      in ANC's #1, #3, #2, ...

........................................................................
.............................. CYCLE   26 ..............................
........................................................................

 iter      E             dE          RMSdq      gap      omega  full diag
   1    -23.1270890 -0.231271E+02  0.161E-02    3.50       0.0  T
   2    -23.1270890 -0.205184E-07  0.966E-03    3.50       2.7  T
   3    -23.1270890  0.432540E-08  0.981E-04    3.50      26.3  T
   4    -23.1270890 -0.104973E-07  0.331E-04    3.50      78.1  T
     SCC iter.                  ...        0 min,  0.003 sec
     gradient                   ...        0 min,  0.001 sec
 * total energy  :   -22.8740659 Eh     change       -0.3926417E-05 Eh
   gradient norm :     0.0002336 Eh/α   predicted    -0.1564665E-05 ( -60.15%)
   displ. norm   :     0.0298000 α      lambda       -0.1805130E-05
   maximum displ.:     0.0269976 α      in ANC's #1, #2, #4, ...

........................................................................
.............................. CYCLE   27 ..............................
........................................................................

 iter      E             dE          RMSdq      gap      omega  full diag
   1    -23.1271134 -0.231271E+02  0.111E-02    3.50       0.0  T
   2    -23.1271134 -0.841799E-08  0.662E-03    3.50       3.9  T
   3    -23.1271134  0.103341E-08  0.620E-04    3.50      41.7  T
   4    -23.1271134 -0.388581E-08  0.237E-04    3.50     108.9  T
     SCC iter.                  ...        0 min,  0.002 sec
     gradient                   ...        0 min,  0.005 sec
 * total energy  :   -22.8740683 Eh     change       -0.2334860E-05 Eh
   gradient norm :     0.0001470 Eh/α   predicted    -0.9028815E-06 ( -61.33%)
   displ. norm   :     0.0196679 α      lambda       -0.1073576E-05
   maximum displ.:     0.0184709 α      in ANC's #1, #2, #6, ...

........................................................................
.............................. CYCLE   28 ..............................
........................................................................

 iter      E             dE          RMSdq      gap      omega  full diag
   1    -23.1271107 -0.231271E+02  0.593E-03    3.50       0.0  T
   2    -23.1271107 -0.452353E-08  0.356E-03    3.50       7.3  T
   3    -23.1271107  0.614701E-09  0.438E-04    3.50      58.9  T
   4    -23.1271107 -0.182879E-08  0.157E-04    3.50     164.6  T
     SCC iter.                  ...        0 min,  0.006 sec
     gradient                   ...        0 min,  0.002 sec
 * total energy  :   -22.8740698 Eh     change       -0.1499257E-05 Eh
   gradient norm :     0.0001738 Eh/α   predicted    -0.5352479E-06 ( -64.30%)
   displ. norm   :     0.0170040 α      lambda       -0.9506015E-06
   maximum displ.:     0.0154639 α      in ANC's #1, #3, #2, ...

........................................................................
.............................. CYCLE   29 ..............................
........................................................................

 iter      E             dE          RMSdq      gap      omega  full diag
   1    -23.1271164 -0.231271E+02  0.692E-03    3.50       0.0  T
   2    -23.1271164 -0.245824E-08  0.412E-03    3.50       6.3  T
   3    -23.1271164 -0.565841E-10  0.322E-04    3.50      80.1  T
   4    -23.1271164 -0.886804E-09  0.143E-04    3.50     180.2  T
     SCC iter.                  ...        0 min,  0.004 sec
     gradient                   ...        0 min,  0.003 sec
 * total energy  :   -22.8740711 Eh     change       -0.1346751E-05 Eh
   gradient norm :     0.0001647 Eh/α   predicted    -0.4738751E-06 ( -64.81%)
   displ. norm   :     0.0199462 α      lambda       -0.1052979E-05
   maximum displ.:     0.0171103 α      in ANC's #1, #3, #2, ...

........................................................................
.............................. CYCLE   30 ..............................
........................................................................

 iter      E             dE          RMSdq      gap      omega  full diag
   1    -23.1271089 -0.231271E+02  0.105E-02    3.50       0.0  T
   2    -23.1271089 -0.372393E-08  0.625E-03    3.50       4.1  T
   3    -23.1271090 -0.642906E-09  0.358E-04    3.50      72.1  T
   4    -23.1271090 -0.870873E-09  0.178E-04    3.50     145.3  T
     SCC iter.                  ...        0 min,  0.002 sec
     gradient                   ...        0 min,  0.005 sec
 * total energy  :   -22.8740726 Eh     change       -0.1450554E-05 Eh
   gradient norm :     0.0001239 Eh/α   predicted    -0.5267152E-06 ( -63.69%)
   displ. norm   :     0.0226478 α      lambda       -0.1018462E-05
   maximum displ.:     0.0190716 α      in ANC's #1, #3, #2, ...

........................................................................
.............................. CYCLE   31 ..............................
........................................................................

 iter      E             dE          RMSdq      gap      omega  full diag
   1    -23.1270952 -0.231271E+02  0.135E-02    3.50       0.0  T
   2    -23.1270952 -0.503620E-08  0.799E-03    3.50       3.2  T
   3    -23.1270952 -0.133824E-08  0.399E-04    3.50      64.7  T
   4    -23.1270952 -0.883887E-09  0.212E-04    3.50     121.9  T
     SCC iter.                  ...        0 min,  0.003 sec
     gradient                   ...        0 min,  0.003 sec
 * total energy  :   -22.8740739 Eh     change       -0.1347483E-05 Eh
   gradient norm :     0.0000752 Eh/α   predicted    -0.5084192E-06 ( -62.27%)
   displ. norm   :     0.0208412 α      lambda       -0.7403033E-06
   maximum displ.:     0.0177371 α      in ANC's #1, #3, #2, ...

........................................................................
.............................. CYCLE   32 ..............................
........................................................................

 iter      E             dE          RMSdq      gap      omega  full diag
   1    -23.1270983 -0.231271E+02  0.135E-02    3.50       0.0  T
   2    -23.1270983 -0.481111E-08  0.797E-03    3.50       3.2  T
   3    -23.1270983 -0.110922E-08  0.403E-04    3.50      64.0  T
   4    -23.1270983 -0.101401E-08  0.206E-04    3.50     125.4  T
     SCC iter.                  ...        0 min,  0.002 sec
     gradient                   ...        0 min,  0.002 sec
 * total energy  :   -22.8740749 Eh     change       -0.9738083E-06 Eh
   gradient norm :     0.0000688 Eh/α   predicted    -0.3700570E-06 ( -62.00%)
   displ. norm   :     0.0156011 α      lambda       -0.4642906E-06
   maximum displ.:     0.0138040 α      in ANC's #1, #2, #3, ...

........................................................................
.............................. CYCLE   33 ..............................
........................................................................

 iter      E             dE          RMSdq      gap      omega  full diag
   1    -23.1270874 -0.231271E+02  0.975E-03    3.50       0.0  T
   2    -23.1270874 -0.251283E-08  0.577E-03    3.50       4.5  T
   3    -23.1270874 -0.771749E-09  0.271E-04    3.50      95.3  T
   4    -23.1270874 -0.331820E-09  0.149E-04    3.50     173.0  T
     SCC iter.                  ...        0 min,  0.002 sec
     gradient                   ...        0 min,  0.002 sec
 * total energy  :   -22.8740755 Eh     change       -0.6267457E-06 Eh
   gradient norm :     0.0000700 Eh/α   predicted    -0.2307931E-06 ( -63.18%)
   displ. norm   :     0.0116703 α      lambda       -0.3194309E-06
   maximum displ.:     0.0105719 α      in ANC's #1, #2, #3, ...

........................................................................
.............................. CYCLE   34 ..............................
........................................................................

 iter      E             dE          RMSdq      gap      omega  full diag
   1    -23.1270936 -0.231271E+02  0.704E-03    3.50       0.0  T
   2    -23.1270936 -0.141411E-08  0.417E-03    3.50       6.2  T
   3    -23.1270936 -0.247724E-09  0.227E-04    3.50     113.9  T
   4    -23.1270936 -0.351417E-09  0.111E-04    3.50     232.9  T
     SCC iter.                  ...        0 min,  0.001 sec
     gradient                   ...        0 min,  0.001 sec
 * total energy  :   -22.8740760 Eh     change       -0.4508878E-06 Eh
   gradient norm :     0.0000659 Eh/α   predicted    -0.1605949E-06 ( -64.38%)
   displ. norm   :     0.0102008 α      lambda       -0.2749235E-06
   maximum displ.:     0.0092523 α      in ANC's #1, #2, #5, ...

........................................................................
.............................. CYCLE   35 ..............................
........................................................................

 iter      E             dE          RMSdq      gap      omega  full diag
   1    -23.1270941 -0.231271E+02  0.510E-03    3.50       0.0  T
   2    -23.1270941 -0.769791E-09  0.302E-03    3.50       8.5  T
   3    -23.1270941 -0.189026E-09  0.156E-04    3.50     165.0  T
   4    -23.1270941 -0.126509E-09  0.823E-05    3.50     313.8  T
     SCC iter.                  ...        0 min,  0.002 sec
     gradient                   ...        0 min,  0.001 sec
 * total energy  :   -22.8740763 Eh     change       -0.3889594E-06 Eh
   gradient norm :     0.0000541 Eh/α   predicted    -0.1380572E-06 ( -64.51%)
   displ. norm   :     0.0103478 α      lambda       -0.2592034E-06
   maximum displ.:     0.0091863 α      in ANC's #1, #2, #5, ...

........................................................................
.............................. CYCLE   36 ..............................
........................................................................

 iter      E             dE          RMSdq      gap      omega  full diag
   1    -23.1270925 -0.231271E+02  0.425E-03    3.50       0.0  T
   2    -23.1270925 -0.663150E-09  0.253E-03    3.50      10.2  T
   3    -23.1270925 -0.100076E-09  0.149E-04    3.50     172.8  T
   4    -23.1270925 -0.146276E-09  0.725E-05    3.50     356.3  T
     SCC iter.                  ...        0 min,  0.014 sec
     gradient                   ...        0 min,  0.001 sec
 * total energy  :   -22.8740767 Eh     change       -0.3603498E-06 Eh
   gradient norm :     0.0000505 Eh/α   predicted    -0.1307469E-06 ( -63.72%)
   displ. norm   :     0.0101791 α      lambda       -0.2254360E-06
   maximum displ.:     0.0089923 α      in ANC's #1, #2, #3, ...

........................................................................
.............................. CYCLE   37 ..............................
........................................................................

 iter      E             dE          RMSdq      gap      omega  full diag
   1    -23.1271001 -0.231271E+02  0.359E-03    3.50       0.0  T
   2    -23.1271001 -0.486800E-09  0.214E-03    3.50      12.0  T
   3    -23.1271001 -0.599094E-10  0.138E-04    3.50     187.7  T
   4    -23.1271001 -0.134850E-09  0.647E-05    3.50     399.3  T
     SCC iter.                  ...        0 min,  0.009 sec
     gradient                   ...        0 min,  0.005 sec
 * total energy  :   -22.8740770 Eh     change       -0.3010817E-06 Eh
   gradient norm :     0.0000346 Eh/α   predicted    -0.1115392E-06 ( -62.95%)
   displ. norm   :     0.0086918 α      lambda       -0.1589586E-06
   maximum displ.:     0.0078006 α      in ANC's #1, #3, #2, ...

........................................................................
.............................. CYCLE   38 ..............................
........................................................................

 iter      E             dE          RMSdq      gap      omega  full diag
   1    -23.1270973 -0.231271E+02  0.287E-03    3.50       0.0  T
   2    -23.1270973 -0.389651E-09  0.171E-03    3.50      15.1  T
   3    -23.1270973 -0.434390E-10  0.116E-04    3.50     223.1  T
   4    -23.1270973 -0.973870E-10  0.539E-05    3.50     478.9  T
     SCC iter.                  ...        0 min,  0.006 sec
     gradient                   ...        0 min,  0.009 sec
 * total energy  :   -22.8740772 Eh     change       -0.2146070E-06 Eh
   gradient norm :     0.0000328 Eh/α   predicted    -0.7925101E-07 ( -63.07%)
   displ. norm   :     0.0065636 α      lambda       -0.1045243E-06
   maximum displ.:     0.0060919 α      in ANC's #1, #2, #3, ...

........................................................................
.............................. CYCLE   39 ..............................
........................................................................

 iter      E             dE          RMSdq      gap      omega  full diag
   1    -23.1271031 -0.231271E+02  0.210E-03    3.50       0.0  T
   2    -23.1271031 -0.240206E-09  0.126E-03    3.50      20.6  T
   3    -23.1271031  0.423483E-11  0.103E-04    3.50     251.3  T
   4    -23.1271031 -0.942642E-10  0.432E-05    3.50     598.2  T
     SCC iter.                  ...        0 min,  0.007 sec
     gradient                   ...        0 min,  0.006 sec
 * total energy  :   -22.8740774 Eh     change       -0.1434961E-06 Eh
   gradient norm :     0.0000276 Eh/α   predicted    -0.5166514E-07 ( -64.00%)
   displ. norm   :     0.0050063 α      lambda       -0.7453647E-07
   maximum displ.:     0.0047654 α      in ANC's #1, #2, #6, ...

........................................................................
.............................. CYCLE   40 ..............................
........................................................................

 iter      E             dE          RMSdq      gap      omega  full diag
   1    -23.1271022 -0.231271E+02  0.161E-03    3.50       0.0  T
   2    -23.1271022 -0.164434E-09  0.963E-04    3.50      26.8  T
   3    -23.1271022 -0.923706E-13  0.806E-05    3.50     320.3  T
     SCC iter.                  ...        0 min,  0.005 sec
     gradient                   ...        0 min,  0.007 sec
 * total energy  :   -22.8740775 Eh     change       -0.1038651E-06 Eh
   gradient norm :     0.0000257 Eh/α   predicted    -0.3659718E-07 ( -64.76%)
   displ. norm   :     0.0043362 α      lambda       -0.6296911E-07
   maximum displ.:     0.0041325 α      in ANC's #1, #2, #5, ...

........................................................................
.............................. CYCLE   41 ..............................
........................................................................

 iter      E             dE          RMSdq      gap      omega  full diag
   1    -23.1271039 -0.231271E+02  0.136E-03    3.50       0.0  T
   2    -23.1271039 -0.146713E-09  0.817E-04    3.50      31.6  T
   3    -23.1271039  0.392220E-11  0.772E-05    3.50     334.5  T
     SCC iter.                  ...        0 min,  0.002 sec
     gradient                   ...        0 min,  0.004 sec
 * total energy  :   -22.8740776 Eh     change       -0.8647932E-07 Eh
   gradient norm :     0.0000237 Eh/α   predicted    -0.3037039E-07 ( -64.88%)
   displ. norm   :     0.0042766 α      lambda       -0.5146371E-07
   maximum displ.:     0.0039915 α      in ANC's #1, #5, #2, ...

   *** GEOMETRY OPTIMIZATION CONVERGED AFTER 41 ITERATIONS ***

------------------------------------------------------------------------
 total energy gain   :        -0.0105521 Eh       -6.6216 kcal/mol
 total RMSD          :         0.6632220 a0        0.3510 Å
 total power (kW/mol):        -0.6757220 (step)  -59.4232 (real)
------------------------------------------------------------------------

 ANCopt (total)                0 d,  0 h,  0 min,  0.466 sec
 optimizer setup                ...        0 min,  0.000 sec (  0.025%)
 model hessian                  ...        0 min,  0.008 sec (  1.627%)
 ANC generation                 ...        0 min,  0.001 sec (  0.146%)
 coordinate transformation      ...        0 min,  0.001 sec (  0.114%)
 single point calculation       ...        0 min,  0.428 sec ( 91.868%)
 optimization log               ...        0 min,  0.004 sec (  0.877%)
 hessian update                 ...        0 min,  0.016 sec (  3.459%)
 rational function              ...        0 min,  0.006 sec (  1.358%)

================
 final structure:
================
15
 xtb: 6.7.1 (edcfbbe)
C            2.61778062557181       -0.49196868826923        0.16583162463539
C            1.16818301273050       -0.64261293891112       -0.29147271259097
C            0.49037237433308        0.70416852388220       -0.34547515132394
O           -0.09069475859159        1.22018278826633        0.80558295653188
C           -0.98400390334225        0.88182767093366       -0.22426249726113
C           -1.89473788609112       -0.27523459322295       -0.03882261379115
O           -1.74362102025697       -1.18525222530618        0.73016632284871
H            2.65233216715762       -0.03149256421953        1.15029029651183
H            3.17745862661333        0.13072603701069       -0.52912921703068
H            3.09461328443339       -1.46698164537197        0.21994279672895
H            0.62945051863158       -1.28907871038698        0.40242066634538
H            1.13462134564172       -1.09071100751442       -1.28780067709514
H            0.99859233582085        1.44476329880319       -0.96502559350833
H           -1.42821261214579        1.72940229869932       -0.74265816619231
H           -2.77437455990629       -0.22703822669305       -0.71099485160869
 
 Bond Distances (Angstroems)
 ---------------------------
C1-C2=1.5275         C1-H8=1.0874         C1-H9=1.0881         C1-H10=1.0867        C2-C1=1.5275         C2-C3=1.5087         
C2-H11=1.0907        C2-H12=1.0930        C3-C2=1.5087         C3-O4=1.3888         C3-C5=1.4900         C3-H13=1.0912        
O4-C3=1.3888         O4-C5=1.4047         C5-C3=1.4900         C5-O4=1.4047         C5-C6=1.4841         C5-H14=1.0883        
C6-C5=1.4841         C6-O7=1.2010         C6-H15=1.1081        O7-C6=1.2010         H8-C1=1.0874         H9-C1=1.0881         
H10-C1=1.0867        H11-C2=1.0907        H12-C2=1.0930        H13-C3=1.0912        H14-C5=1.0883        H15-C6=1.1081        
 C  H  Rav=1.0917 sigma=0.0065  Rmin=1.0867  Rmax=1.1081     8
 C  C  Rav=1.5026 sigma=0.0170  Rmin=1.4841  Rmax=1.5275     4
 O  C  Rav=1.3315 sigma=0.0925  Rmin=1.2010  Rmax=1.4047     3
 
 selected bond angles (degree)
 --------------------
H8-C1-C2=110.06                H9-C1-C2=110.69                H9-C1-H8=108.64                H10-C1-C2=110.05               
H10-C1-H8=108.72               H10-C1-H9=108.64               C3-C2-C1=110.43                H11-C2-C1=109.68               
H11-C2-C3=109.27               H12-C2-C1=110.03               H12-C2-C3=108.64               H12-C2-H11=108.77              
O4-C3-C2=119.34                C5-C3-C2=123.24                C5-C3-O4= 58.28                H13-C3-C2=114.64               
H13-C3-O4=114.41               H13-C3-C5=115.22               C5-O4-C3= 64.46                O4-C5-C3= 57.25                
C6-C5-C3=121.63                C6-C5-O4=119.11                H14-C5-C3=117.26               H14-C5-O4=114.91               
H14-C5-C6=114.60               O7-C6-C5=126.41                H15-C6-C5=112.17               H15-C6-O7=121.42               
 
 selected dihedral angles (degree)
 ---------------------------------
C3-C2-C1-H8= 59.18            C3-C2-C1-H9=299.07            C3-C2-C1-H10=178.97           H11-C2-C1-H8=298.70           
H11-C2-C1-H9=178.60           H11-C2-C1-H10= 58.50          H12-C2-C1-H8=179.09           H12-C2-C1-H9= 58.99           
H12-C2-C1-H10=298.89          O4-C3-C2-C1=274.12            O4-C3-C2-H11= 34.84           O4-C3-C2-H12=153.37           
C5-C3-C2-C1=204.78            C5-C3-C2-H11=325.50           C5-C3-C2-H12= 84.03           H13-C3-C2-C1= 55.33           
H13-C3-C2-H11=176.05          H13-C3-C2-H12=294.58          C5-O4-C3-C2=246.94            C5-O4-C3-H13=105.64           
O4-C5-C3-C2=106.48            O4-C5-C3-H13=255.76           C6-C5-C3-C2=  0.03            C6-C5-C3-O4=253.55            
C6-C5-C3-H13=149.32           H14-C5-C3-C2=209.89           H14-C5-C3-O4=103.41           H14-C5-C3-H13=359.18          
C6-C5-O4-C3=110.83            H14-C5-O4-C3=252.44           O7-C6-C5-C3= 46.23            O7-C6-C5-O4=338.82            
O7-C6-C5-H14=197.10           H15-C6-C5-C3=226.43           H15-C6-C5-O4=159.03           H15-C6-C5-H14= 17.30          
           -------------------------------------------------
          |                Final Singlepoint                |
           -------------------------------------------------

          ...................................................
          :                      SETUP                      :
          :.................................................:
          :  # basis functions                  36          :
          :  # atomic orbitals                  36          :
          :  # shells                           22          :
          :  # electrons                        40          :
          :  max. iterations                    40          :
          :  Hamiltonian                  GFN2-xTB          :
          :  restarted?                      false          :
          :  GBSA solvation                   true          :
          :  PC potential                    false          :
          :  electronic temp.          300.0000000     K    :
          :  accuracy                    1.0000000          :
          :  -> integral cutoff          0.2500000E+02      :
          :  -> integral neglect         0.1000000E-07      :
          :  -> SCF convergence          0.1000000E-05 Eh   :
          :  -> wf. convergence          0.1000000E-03 e    :
          :  Broyden damping             0.4000000          :
          :  net charge                          0          :
          :  unpaired electrons                  0          :
          ...................................................

 iter      E             dE          RMSdq      gap      omega  full diag
   1    -23.1271039 -0.231271E+02  0.320E-05    3.50       0.0  T
   2    -23.1271039 -0.774492E-12  0.204E-05    3.50    1265.0  T
   3    -23.1271039  0.817124E-13  0.763E-06    3.50    3383.6  T

   *** convergence criteria satisfied after 3 iterations ***

         #    Occupation            Energy/Eh            Energy/eV
      -------------------------------------------------------------
         1        2.0000           -0.7422680             -20.1981
       ...           ...                  ...                  ...
        14        2.0000           -0.4984547             -13.5636
        15        2.0000           -0.4950865             -13.4720
        16        2.0000           -0.4684605             -12.7475
        17        2.0000           -0.4580294             -12.4636
        18        2.0000           -0.4464733             -12.1492
        19        2.0000           -0.4382895             -11.9265
        20        2.0000           -0.4188986             -11.3988 (HOMO)
        21                         -0.2901862              -7.8964 (LUMO)
        22                         -0.0917358              -2.4963
        23                          0.0460808               1.2539
        24                          0.0659022               1.7933
        25                          0.0956225               2.6020
       ...                                ...                  ...
        36                          0.6076722              16.5356
      -------------------------------------------------------------
                  HL-Gap            0.1287124 Eh            3.5024 eV
             Fermi-level           -0.3545424 Eh           -9.6476 eV

 SCC (total)                   0 d,  0 h,  0 min,  0.016 sec
 SCC setup                      ...        0 min,  0.002 sec (  9.676%)
 Dispersion                     ...        0 min,  0.000 sec (  0.322%)
 classical contributions        ...        0 min,  0.000 sec (  0.087%)
 integral evaluation            ...        0 min,  0.000 sec (  2.970%)
 iterations                     ...        0 min,  0.008 sec ( 52.934%)
 molecular gradient             ...        0 min,  0.005 sec ( 32.912%)
 printout                       ...        0 min,  0.000 sec (  0.820%)

         :::::::::::::::::::::::::::::::::::::::::::::::::::::
         ::                     SUMMARY                     ::
         :::::::::::::::::::::::::::::::::::::::::::::::::::::
         :: total energy             -22.874077552690 Eh    ::
         :: total w/o Gsasa/hb       -22.865936399066 Eh    ::
         :: gradient norm              0.000031405748 Eh/a0 ::
         :: HOMO-LUMO gap              3.502441893437 eV    ::
         ::.................................................::
         :: SCC energy               -23.127090854207 Eh    ::
         :: -> isotropic ES            0.041258217605 Eh    ::
         :: -> anisotropic ES          0.003276740476 Eh    ::
         :: -> anisotropic XC          0.003824769664 Eh    ::
         :: -> dispersion             -0.008612645923 Eh    ::
         :: -> Gsolv                  -0.010654551181 Eh    ::
         ::    -> Gelec               -0.002513397558 Eh    ::
         ::    -> Gsasa               -0.010349296762 Eh    ::
         ::    -> Ghb                  0.000000000000 Eh    ::
         ::    -> Gshift               0.002208143139 Eh    ::
         :: repulsion energy           0.253013301517 Eh    ::
         :: add. restraining           0.000000000000 Eh    ::
         :: total charge              -0.000000000000 e     ::
         :::::::::::::::::::::::::::::::::::::::::::::::::::::

           -------------------------------------------------
          |                Property Printout                |
           -------------------------------------------------

    * Orbital Energies and Occupations

         #    Occupation            Energy/Eh            Energy/eV
      -------------------------------------------------------------
         1        2.0000           -0.7422680             -20.1981
       ...           ...                  ...                  ...
         8        2.0000           -0.5777200             -15.7206
         9        2.0000           -0.5647510             -15.3677
        10        2.0000           -0.5635440             -15.3348
        11        2.0000           -0.5544777             -15.0881
        12        2.0000           -0.5351670             -14.5626
        13        2.0000           -0.5134956             -13.9729
        14        2.0000           -0.4984547             -13.5636
        15        2.0000           -0.4950865             -13.4720
        16        2.0000           -0.4684605             -12.7475
        17        2.0000           -0.4580294             -12.4636
        18        2.0000           -0.4464733             -12.1492
        19        2.0000           -0.4382895             -11.9265
        20        2.0000           -0.4188986             -11.3988 (HOMO)
        21                         -0.2901862              -7.8964 (LUMO)
        22                         -0.0917358              -2.4963
        23                          0.0460808               1.2539
        24                          0.0659022               1.7933
        25                          0.0956225               2.6020
        26                          0.1186566               3.2288
        27                          0.1305684               3.5529
        28                          0.1409798               3.8363
        29                          0.1673714               4.5544
        30                          0.1764356               4.8011
        31                          0.2005939               5.4584
       ...                                ...                  ...
        36                          0.6076722              16.5356
      -------------------------------------------------------------
                  HL-Gap            0.1287124 Eh            3.5024 eV
             Fermi-level           -0.3545424 Eh           -9.6476 eV

     #   Z          covCN         q      C6AA      α(0)
     1   6 C        3.754    -0.106    22.583     6.776
     2   6 C        3.800    -0.068    21.803     6.648
     3   6 C        3.735     0.124    18.642     6.162
     4   8 O        1.702    -0.302    19.028     5.890
     5   6 C        3.731     0.074    19.427     6.291
     6   6 C        2.756     0.207    23.608     7.957
     7   8 O        0.856    -0.317    20.095     6.010
     8   1 H        0.925     0.051     2.311     2.377
     9   1 H        0.925     0.043     2.409     2.427
    10   1 H        0.925     0.051     2.305     2.374
    11   1 H        0.924     0.071     2.079     2.255
    12   1 H        0.924     0.046     2.366     2.405
    13   1 H        0.924     0.045     2.386     2.416
    14   1 H        0.925     0.049     2.329     2.386
    15   1 H        0.922     0.032     2.559     2.502

 Mol. C6AA /au·bohr⁶  :       1933.874711
 Mol. C8AA /au·bohr⁸  :      42241.984467
 Mol. α(0) /au        :         64.876785


Wiberg/Mayer (AO) data.
largest (>0.10) Wiberg bond orders for each atom

 ---------------------------------------------------------------------------
     #   Z sym  total        # sym  WBO       # sym  WBO       # sym  WBO
 ---------------------------------------------------------------------------
     1   6 C    3.993 --     2 C    1.009     9 H    0.987     8 H    0.987
                            10 H    0.985
     2   6 C    3.991 --     1 C    1.009     3 C    1.004    12 H    0.971
                            11 H    0.970
     3   6 C    3.905 --     2 C    1.004     4 O    0.958    13 H    0.958
                             5 C    0.900
     4   8 O    2.008 --     3 C    0.958     5 C    0.924
     5   6 C    3.907 --     6 C    1.029    14 H    0.961     4 O    0.924
                             3 C    0.900
     6   6 C    3.926 --     7 O    1.903     5 C    1.029    15 H    0.930
     7   8 O    2.099 --     6 C    1.903
     8   1 H    0.997 --     1 C    0.987
     9   1 H    0.998 --     1 C    0.987
    10   1 H    0.997 --     1 C    0.985
    11   1 H    0.995 --     2 C    0.970
    12   1 H    0.998 --     2 C    0.971
    13   1 H    0.998 --     3 C    0.958
    14   1 H    0.997 --     5 C    0.961
    15   1 H    0.999 --     6 C    0.930
 ---------------------------------------------------------------------------

Topologies differ in total number of bonds
Writing topology from bond orders to xtbtopo.mol

molecular dipole:
                 x           y           z       tot (Debye)
 q only:        0.438       0.244      -1.185
   full:        0.313       0.464      -1.381       3.786
molecular quadrupole (traceless):
                xx          xy          yy          xz          yz          zz
 q only:        3.617      -3.852      -2.312       2.964      -0.978      -1.305
  q+dip:        3.747      -4.234      -1.816       3.275      -1.871      -1.931
   full:        4.052      -4.646      -2.442       3.062      -0.883      -1.610

           -------------------------------------------------
          |                Geometry Summary                 |
           -------------------------------------------------

      molecular mass/u    :      100.1160153
   center of mass at/Å    :       -0.0501210       0.0186599       0.1325489
  moments of inertia/u·Å² :        0.1055591E+03   0.2700237E+03   0.3262610E+03
rotational constants/cm⁻¹ :        0.1596985E+00   0.6243019E-01   0.5166917E-01

 * 14 selected distances

     #   Z          #   Z                                           value/Å
     1   6 C        2   6 C                                       1.5274667 (max)
     2   6 C        3   6 C                                       1.5086962
     3   6 C        4   8 O                                       1.3888286
     3   6 C        5   6 C                                       1.4899802
     4   8 O        5   6 C                                       1.4046592
     5   6 C        6   6 C                                       1.4841219
     6   6 C        7   8 O                                       1.2009632
     1   6 C        8   1 H                                       1.0873781
     1   6 C        9   1 H                                       1.0880988
     1   6 C       10   1 H                                       1.0867143 (min)
     2   6 C       11   1 H                                       1.0907057
     2   6 C       12   1 H                                       1.0929720
     3   6 C       13   1 H                                       1.0911513
     5   6 C       14   1 H                                       1.0883191

 * 3 distinct bonds (by element types)

   Z      Z             #   av. dist./Å        max./Å        min./Å
   1 H    6 C           7     1.0893342     1.0929720     1.0867143
   6 C    6 C           4     1.5025663     1.5274667     1.4841219
   6 C    8 O           3     1.3314837     1.4046592     1.2009632


optimized geometry written to: xtbopt.xyz


           -------------------------------------------------
          | TOTAL ENERGY              -22.874077552690 Eh   |
          | GRADIENT NORM               0.000031405748 Eh/α |
          | HOMO-LUMO GAP               3.502441893437 eV   |
           -------------------------------------------------

------------------------------------------------------------------------
 * finished run on 2024/08/07 at 21:38:26.311     
------------------------------------------------------------------------
 total:
 * wall-time:     0 d,  0 h,  0 min,  0.505 sec
 *  cpu-time:     0 d,  0 h,  0 min,  3.534 sec
 * ratio c/w:     6.993 speedup
 SCF:
 * wall-time:     0 d,  0 h,  0 min,  0.011 sec
 *  cpu-time:     0 d,  0 h,  0 min,  0.084 sec
 * ratio c/w:     7.451 speedup
 ANC optimizer:
 * wall-time:     0 d,  0 h,  0 min,  0.483 sec
 *  cpu-time:     0 d,  0 h,  0 min,  3.384 sec
 * ratio c/w:     7.003 speedup

