15
 energy: -22.863525427822 gnorm: 0.052427136026 xtb: 6.7.1 (edcfbbe)
C            2.54308479120000       -0.50609200670000        0.29923982140000
C            1.20956827070000       -0.63056640770000       -0.41402636430000
C            0.50947391200000        0.71573722540000       -0.54485026590000
O           -0.01325170300000        1.26322318620000        0.63986685480000
C           -1.00103203380000        0.89712555410000       -0.31245844390000
C           -1.87682174880000       -0.26416434280000        0.03037854660000
O           -1.47656931440000       -1.37922609570000        0.16299772900000
H            2.41129073320000       -0.06647475910000        1.28903689580000
H            3.22561705510000        0.14145929200000       -0.25271528400000
H            3.03258399710000       -1.47356943380000        0.42648314550000
H            0.55119856500000       -1.30740867850000        0.14245847990000
H            1.33171908710000       -1.08282042400000       -1.40560890110000
H            1.03857781870000        1.45002733040000       -1.16282022320000
H           -1.50764151030000        1.74814947730000       -0.78037791020000
H           -2.93003836920000       -0.09469989940000        0.22098910280000
15
 energy: -22.869223759515 gnorm: 0.023596027527 xtb: 6.7.1 (edcfbbe)
C            2.55634210834013       -0.48644152546879        0.28939725548790
C            1.21542229116596       -0.63804526629544       -0.41089683133518
C            0.50889302339716        0.69878214091684       -0.50909375537292
O           -0.02091868515034        1.24324079021219        0.66852889974926
C           -0.97163956750857        0.86923734403764       -0.30667505391859
C           -1.87880225993292       -0.26538154905598        0.04875136494103
O           -1.54326774210799       -1.41227089718694        0.20611001634613
H            2.41268469212269       -0.06067370904687        1.28224484821698
H            3.22927562879624        0.16429329510063       -0.26866379895913
H            3.03147566635259       -1.45959491516124        0.40109461124109
H            0.58648071765752       -1.32707613721231        0.15420521115392
H            1.34335276523316       -1.05382498044019       -1.41545047301293
H            0.99065730239181        1.43305958469788       -1.15868193645288
H           -1.46225640725435        1.71617976002257       -0.78804775359949
H           -2.94993998290309       -0.01078391742001        0.14577057871480
15
 energy: -22.870441136685 gnorm: 0.024317317916 xtb: 6.7.1 (edcfbbe)
C            2.57222715952286       -0.47804695379335        0.28185682462651
C            1.21970228332868       -0.64330519088213       -0.40555711690091
C            0.50059608877886        0.68186772139664       -0.48250829477741
O           -0.03605682003047        1.22055442510386        0.68828840539670
C           -0.95883368356552        0.84623143028411       -0.30814184357682
C           -1.89423905447368       -0.27128154590090        0.02263194742779
O           -1.59820386321918       -1.41958006059811        0.26472924181433
H            2.42747358454332       -0.05817891366558        1.27509251696731
H            3.22644062911811        0.18183564109901       -0.28445310342268
H            3.05307162520058       -1.44791989157034        0.38050185210314
H            0.61489071554553       -1.34950914994079        0.16009719370464
H            1.35122411787541       -1.02676926434205       -1.42083594329354
H            0.96712752062022        1.42111764589221       -1.13388786582397
H           -1.43951441759440        1.69111468270502       -0.79776734450425
H           -2.95814633505031        0.06256944191240        0.09854671345914
15
 energy: -22.870872008384 gnorm: 0.014256677834 xtb: 6.7.1 (edcfbbe)
C            2.58085519310808       -0.47551214420811        0.27644782698792
C            1.22136602000388       -0.64839870270363       -0.40113833711404
C            0.49708988177809        0.67340270598405       -0.47551113616845
O           -0.03545436263484        1.21465616837423        0.69402461324143
C           -0.96027207826627        0.84217002493595       -0.29839623692660
C           -1.90296298643521       -0.26460923742526        0.04393216344336
O           -1.62182252117719       -1.41012553202294        0.27787439582095
H            2.44289769248890       -0.05243143535510        1.26861442149616
H            3.22314955746517        0.18798586936301       -0.29871539945258
H            3.07088434038033       -1.44058817352680        0.37292570011238
H            0.62625159901939       -1.36045889673793        0.16768319578031
H            1.34970140634256       -1.02770279128288       -1.41700491867708
H            0.96967576379158        1.41232295216753       -1.12307541281238
H           -1.43991763105559        1.68589934502049       -0.79195423002415
H           -2.97368232420888        0.07408986511739        0.04288653749274
15
 energy: -22.871207288372 gnorm: 0.006320520468 xtb: 6.7.1 (edcfbbe)
C            2.58627960760647       -0.47332352148937        0.27109316699028
C            1.22192289042184       -0.65427213507204       -0.39616367441697
C            0.49690543106535        0.66818541801223       -0.46718700213246
O           -0.04196246220964        1.20777123762564        0.70042976861262
C           -0.96602746264669        0.84276391487747       -0.29613874571110
C           -1.91547416125138       -0.26226040027829        0.03427607292066
O           -1.63463997224612       -1.39787275337650        0.29322822187024
H            2.45684072709754       -0.04851211805920        1.26380881133691
H            3.21857926380122        0.19355819640846       -0.31188936734725
H            3.08489459850905       -1.43433632891022        0.36443998836375
H            0.63284774988703       -1.36973903533402        0.17548952475001
H            1.34579205619773       -1.03474932898072       -1.41150586595871
H            0.97919450722078        1.40806031974782       -1.10813273052206
H           -1.43997697292559        1.68938749964568       -0.79254857342858
H           -2.97741624992759        0.07603905288304        0.01939358787263
15
 energy: -22.871631861541 gnorm: 0.006150999478 xtb: 6.7.1 (edcfbbe)
C            2.59838948036556       -0.46926214902219        0.25590062761572
C            1.22162742088362       -0.66390633095330       -0.38454644760501
C            0.49709326782195        0.65936339923095       -0.44475738887574
O           -0.05445893065012        1.19304107493179        0.71914803576288
C           -0.97133576871201        0.84021641015646       -0.28930891800872
C           -1.93603299905749       -0.25940576665372        0.02011797457645
O           -1.66256956339103       -1.37888055448669        0.35815960110580
H            2.48748688216297       -0.04414129910248        1.25105693412066
H            3.20849229792152        0.20579903893654       -0.34265148961692
H            3.11342481328532       -1.42289086795766        0.33865626287805
H            0.64555630901691       -1.38348775440176        0.19613820617201
H            1.33121549451447       -1.04406029647565       -1.40140123453943
H            0.99147444197239        1.40297351586438       -1.07512015905443
H           -1.43209989855808        1.69176063769765       -0.79244761089511
H           -2.99050369697597        0.08358095993565       -0.07035121043625
15
 energy: -22.871997851683 gnorm: 0.017187687257 xtb: 6.7.1 (edcfbbe)
C            2.61002747045621       -0.46605840625888        0.23439896625925
C            1.21631810217714       -0.67268873344218       -0.36546123005606
C            0.49557086625691        0.65204889841893       -0.41806132751752
O           -0.06350213202919        1.17950042684967        0.74318460473017
C           -0.97609104404213        0.84376624891285       -0.27540396379842
C           -1.94942327170611       -0.25605590587402        0.00330472984490
O           -1.67858555811520       -1.34963274297874        0.43671521213000
H            2.52606700495960       -0.03866353533123        1.23205612658698
H            3.19530243566866        0.21337075185453       -0.38475583386208
H            3.13854014704221       -1.41338631156252        0.30505159046468
H            0.65523391054641       -1.38629797496288        0.23776930987768
H            1.29824526829244       -1.06314540155301       -1.38169741546846
H            0.99743024123045        1.39763463732061       -1.04264535524822
H           -1.41978504618442        1.70274344086337       -0.78132194820928
H           -2.99758884395298        0.06756462544349       -0.20454028253368
15
 energy: -22.872502512807 gnorm: 0.010154166529 xtb: 6.7.1 (edcfbbe)
C            2.61191067202590       -0.46448020686065        0.22056652473486
C            1.20766276052450       -0.67579869168295       -0.34906681076689
C            0.49356363990013        0.65117442614403       -0.40620886799237
O           -0.06075340794768        1.17621529492689        0.75602956048474
C           -0.97725493340436        0.85336120941140       -0.26261481188955
C           -1.94499758668091       -0.25505229748776       -0.00974168524756
O           -1.67448089809043       -1.33168199515652        0.45530060749700
H            2.54715658433048       -0.02960759775968        1.21701102568198
H            3.18597973154941        0.20972188168627       -0.41349802361103
H            3.14143009243141       -1.41064835672741        0.28940011005196
H            0.65328323969798       -1.37318453645566        0.27981779124124
H            1.26501905689908       -1.08698627786541       -1.36030618865212
H            0.99451249342605        1.39457005069406       -1.03396252601928
H           -1.41099833417340        1.71929449093791       -0.76233659673214
H           -2.98427355988819        0.03380262389547       -0.28179692558093
15
 energy: -22.873025143363 gnorm: 0.009841626849 xtb: 6.7.1 (edcfbbe)
C            2.61255742085660       -0.46803553071463        0.20100661735978
C            1.19393749166352       -0.67110381765204       -0.32711221141633
C            0.49301057895786        0.66196301153127       -0.39014118514436
O           -0.06120594497601        1.18303959981529        0.77105752041738
C           -0.97732033420018        0.86416403301569       -0.24775385512867
C           -1.92869388860741       -0.25744225518223       -0.02286037795718
O           -1.66614594588489       -1.30962902256689        0.50028180514263
H            2.57565275815053       -0.02241578089315        1.19414206013349
H            3.17646040514827        0.19313343494316       -0.45275772757639
H            3.13244797995483       -1.41919347553626        0.26511674007500
H            0.64576320892275       -1.34198571586218        0.33618564933517
H            1.21832664449868       -1.11261279754850       -1.32875781509484
H            0.99344492766543        1.40275515244620       -1.01841990759142
H           -1.40622044215045        1.73294651342174       -0.74161178277261
H           -2.95425530939959       -0.02488333151748       -0.39978234658176
15
 energy: -22.873088792937 gnorm: 0.013245113044 xtb: 6.7.1 (edcfbbe)
C            2.60713720985040       -0.47696344970809        0.19373944308795
C            1.18132404063421       -0.65639904891386       -0.31259012326637
C            0.49320128884158        0.68283415839379       -0.38866751195408
O           -0.06342617661025        1.20028818697964        0.77169351447622
C           -0.97571801758271        0.87244662503722       -0.24632294901007
C           -1.90065521190937       -0.26480038567402       -0.03210741782590
O           -1.65297717914601       -1.30475664565770        0.50630418795936
H            2.58847459210517       -0.02191521189495        1.18154039683990
H            3.17635924646863        0.16516361431735       -0.47121663279553
H            3.10421827507067       -1.44043321279091        0.25911241901972
H            0.62919130894551       -1.30107240678486        0.37117606423523
H            1.18634023692443       -1.11984258079948       -1.30395340634599
H            0.99089362128894        1.42069682232074       -1.01725820866352
H           -1.41330607757182        1.73752352779598       -0.73487822334379
H           -2.90329760670943       -0.08206997492086       -0.43797836921323
15
 energy: -22.873404697677 gnorm: 0.022286383536 xtb: 6.7.1 (edcfbbe)
C            2.61547621516154       -0.48234778800246        0.17383016813406
C            1.16978364543849       -0.65189054808260       -0.28886989380159
C            0.49217641365202        0.69281481396357       -0.36465625061027
O           -0.07516898255718        1.20578606388444        0.79125951292729
C           -0.97985067144561        0.87931384130610       -0.23426517454263
C           -1.89519896321156       -0.26779242274555       -0.04768076179319
O           -1.66152301976765       -1.27725588776109        0.57900951800030
H            2.63346646844768       -0.01954146004740        1.16014674698185
H            3.17098029013216        0.14860756650611       -0.51684194880084
H            3.10506137768432       -1.45075001773892        0.23116276958368
H            0.62689983591422       -1.27947227389808        0.41974525269074
H            1.14211742153749       -1.12853549022378       -1.27510484063162
H            0.99527317805489        1.42960134040733       -0.98969272816842
H           -1.41431613643743        1.74263091443773       -0.72990887923817
H           -2.87741752200347       -0.13046863430541       -0.56954030753131
15
 energy: -22.873584124830 gnorm: 0.004935934654 xtb: 6.7.1 (edcfbbe)
C            2.61751717804282       -0.47994794120103        0.18246293236511
C            1.17777752124242       -0.65556153976584       -0.29864544013434
C            0.49237407742552        0.68594101580376       -0.36848547686698
O           -0.07555721897456        1.20497428995139        0.78648569417591
C           -0.98045088175171        0.87353710833518       -0.23776702539020
C           -1.90713999931792       -0.26639672636844       -0.03783623526943
O           -1.67254805191106       -1.28743160062961        0.55158275284516
H            2.62505071954315       -0.01921473219393        1.16848932504877
H            3.17680535192290        0.15505120816476       -0.50231760571091
H            3.11188604221454       -1.44512568956792        0.24499490887251
H            0.63535106400027       -1.29890825899014        0.39344391337172
H            1.16497768711493       -1.11520298859040       -1.28968109181978
H            0.99624876427315        1.42304880102615       -0.99552925661076
H           -1.41845553006961        1.73289515806566       -0.74125798656493
H           -2.89607717315492       -0.09695808633959       -0.51734622511196
15
 energy: -22.873697975866 gnorm: 0.005613138709 xtb: 6.7.1 (edcfbbe)
C            2.62021934420983       -0.48248662416783        0.17686081140426
C            1.17555243583044       -0.65207988964433       -0.29189165517410
C            0.49214297873773        0.69076274088754       -0.36060149019540
O           -0.08270465059894        1.20888940380446        0.79161769608296
C           -0.98221063184902        0.87478498232695       -0.23641098680531
C           -1.90601907507566       -0.26916017348116       -0.04369160494365
O           -1.68000304646159       -1.27936093857931        0.57008696161275
H            2.63955682358889       -0.01681612181453        1.15992141205145
H            3.17858717438994        0.14462604033208       -0.51544456621386
H            3.10799860650299       -1.45106114306900        0.24011307382391
H            0.63689583665065       -1.29188431972995        0.40688298676837
H            1.15253763068122       -1.11361561711392       -1.28167164992053
H            0.99825700262295        1.42835695802771       -0.98533379598691
H           -1.42173215628110        1.73150776033502       -0.74366740418685
H           -2.88131872234840       -0.11176304041371       -0.54817660511721
15
 energy: -22.873766022315 gnorm: 0.014631970676 xtb: 6.7.1 (edcfbbe)
C            2.63038338594935       -0.49087190952905        0.15346273216342
C            1.16531080415715       -0.64099430790083       -0.26292724650360
C            0.49079546660996        0.70751852941782       -0.32874469636471
O           -0.10397596327378        1.22517765895918        0.81411085840157
C           -0.98762253594116        0.88176277130400       -0.22330531345288
C           -1.89995665188453       -0.27772297604979       -0.05889665279776
O           -1.71078246074222       -1.24538711218650        0.63623240450543
H            2.69686273730406       -0.00196518561565        1.12378216207722
H            3.18153025074720        0.10491687015310       -0.57413645711330
H            3.09542637622046       -1.47114513312908        0.22252382728451
H            0.64160127441094       -1.26595671792712        0.46272992097011
H            1.10164768990721       -1.11344364451817       -1.24653712640299
H            1.00425901903265        1.44484967148459       -0.94802749000468
H           -1.43165809385831        1.72844537003645       -0.74556861264383
H           -2.82606174803906       -0.17448386679894       -0.68610512691869
15
 energy: -22.873914542426 gnorm: 0.004079502076 xtb: 6.7.1 (edcfbbe)
C            2.62702662513351       -0.48842540430866        0.16069568474701
C            1.17023277028037       -0.64333946297925       -0.27268283385118
C            0.49102961103386        0.70243871052036       -0.33824229669992
O           -0.10098418739976        1.21845200097824        0.80691626920676
C           -0.98606600855773        0.87828573067433       -0.23036463320922
C           -1.90347845011475       -0.27624589903599       -0.05522174813435
O           -1.70762781276228       -1.25368217366823        0.61773596336205
H            2.67827320497751       -0.00412137651274        1.13227791328314
H            3.18189150869942        0.11342566589835       -0.55633279662504
H            3.09755955472246       -1.46546402815209        0.23232862514582
H            0.64242263732576       -1.27606931648534        0.44143107028964
H            1.11976377777330       -1.10973248104884       -1.25906160403066
H            1.00334252559532        1.44208178971989       -0.95563682806966
H           -1.42863744203547        1.72785682285360       -0.74775468552215
H           -2.83698876407160       -0.15476056075364       -0.63749491669238
15
 energy: -22.873958295276 gnorm: 0.003439574940 xtb: 6.7.1 (edcfbbe)
C            2.62778860196487       -0.48924667465867        0.15575898847492
C            1.16807075989922       -0.64224692918964       -0.26730686865409
C            0.49045982012267        0.70437146439282       -0.33243979696561
O           -0.10466678809627        1.21852684633501        0.81186803397585
C           -0.98656085107299        0.87982173526950       -0.22819986816295
C           -1.90198319095040       -0.27730528009862       -0.05876347419095
O           -1.71510980922432       -1.24490329383089        0.63034568978186
H            2.68742966021729        0.00107841323267        1.12411422986405
H            3.17998425930243        0.10599016284093       -0.56913946172737
H            3.09584704437890       -1.46719516408962        0.23085752443717
H            0.64265871526678       -1.27205178004075        0.45139322936453
H            1.11048756280677       -1.11162745730341       -1.25228418561946
H            1.00434705390467        1.44483513961691       -0.94732565295424
H           -1.42773036125163        1.72945292305133       -0.74621669578357
H           -2.82326292666808       -0.16880008782756       -0.66406850864030
15
 energy: -22.874004978218 gnorm: 0.005405331471 xtb: 6.7.1 (edcfbbe)
C            2.62957082552722       -0.49084673664261        0.14264399770709
C            1.16304792820150       -0.64088098796615       -0.25471157869867
C            0.48883951102880        0.70769625573288       -0.31690660851523
O           -0.11457854298515        1.21714184560597        0.82528605684924
C           -0.98799361527943        0.88326514944084       -0.22272220243388
C           -1.89912845145981       -0.27890359404578       -0.06698988097305
O           -1.73834671674167       -1.21905780580661        0.66646638952580
H            2.70832384576920        0.01446089312667        1.10220583821365
H            3.17321879010307        0.08892491205379       -0.60089588042169
H            3.09389403399396       -1.46989469978477        0.22670529517064
H            0.64465007143100       -1.26463552956001        0.47469356311162
H            1.08891330430294       -1.11622674757036       -1.23629053028592
H            1.00774873303452        1.45063293746542       -0.92444717421911
H           -1.42444112515698        1.73372073397873       -0.74272521752643
H           -2.78595904116927       -0.20469660832799       -0.73371888430422
15
 energy: -22.874023521728 gnorm: 0.001397579604 xtb: 6.7.1 (edcfbbe)
C            2.62899690523002       -0.48971386704664        0.14423265333923
C            1.16371754980834       -0.64250601503253       -0.25671612696108
C            0.48889804190568        0.70574308746211       -0.31859895937500
O           -0.11292481744141        1.21549230214640        0.82432381657497
C           -0.98749630136443        0.88276570857189       -0.22324266181057
C           -1.90016927500822       -0.27783931940031       -0.06585369367154
O           -1.73886681272889       -1.21985529792372        0.66085811507288
H            2.70457711379175        0.01500197360503        1.10444600612799
H            3.17238862417120        0.09184311563912       -0.59787017879099
H            3.09582995893771       -1.46751922995404        0.22840637240949
H            0.64450500452959       -1.26781526695878        0.47080150606466
H            1.09249694815924       -1.11665141196597       -1.23908496798150
H            1.00770551182405        1.44867927290377       -0.92626451620885
H           -1.42302741533703        1.73417813715744       -0.74248018588243
H           -2.78887148587772       -0.20110317150376       -0.72436399570744
15
 energy: -22.874030712736 gnorm: 0.002686427265 xtb: 6.7.1 (edcfbbe)
C            2.62924373281420       -0.48950791627355        0.14238903211283
C            1.16381930863778       -0.64314388913402       -0.25613485746988
C            0.48862660465875        0.70492320792404       -0.31611454155823
O           -0.11543091734467        1.21316541605927        0.82642937645012
C           -0.98773757772134        0.88229279362804       -0.22372530080325
C           -1.90093062013213       -0.27737182274125       -0.06730916683461
O           -1.74852148874692       -1.21163883455618        0.67317399187939
H            2.70524989920641        0.01596622103857        1.10149833720344
H            3.16988972172583        0.09160555109498       -0.60097717631712
H            3.09749387256747       -1.46667078342091        0.22657413688353
H            0.64629125759447       -1.26955707386232        0.47089899959457
H            1.09173201258079       -1.11585224243653       -1.23869407677172
H            1.00909567358544        1.44913245705263       -0.92091114641147
H           -1.42147391658902        1.73454282774857       -0.74300248349200
H           -2.77958801223713       -0.20718589442134       -0.73550194126575
15
 energy: -22.874036441466 gnorm: 0.001495689354 xtb: 6.7.1 (edcfbbe)
C            2.62965873292319       -0.48953183684085        0.14078906226591
C            1.16306218237702       -0.64343779590001       -0.25480694666428
C            0.48847828690941        0.70505371664599       -0.31404493116574
O           -0.11590084941239        1.21344388242475        0.82828140455051
C           -0.98787599742217        0.88286530766791       -0.22224929719211
C           -1.90060803290535       -0.27708824013834       -0.06783719133589
O           -1.75415788972006       -1.20609024955903        0.67975000177287
H            2.70752034111493        0.01689382663357        1.09945681112544
H            3.16862302133620        0.09090129179900       -0.60430692905645
H            3.09805815234114       -1.46671848449474        0.22449658808994
H            0.64672844426031       -1.26924903045686        0.47390585495102
H            1.08896861559781       -1.11665509198623       -1.23713954581268
H            1.00956112431121        1.44909918812029       -0.91852006163876
H           -1.42101360595623        1.73506673290405       -0.74225910833732
H           -2.77334297515511       -0.21385319911949       -0.74692252835263
15
 energy: -22.874042220461 gnorm: 0.000933544135 xtb: 6.7.1 (edcfbbe)
C            2.62974581041169       -0.48962195556535        0.14144610262648
C            1.16305446706608       -0.64357212966938       -0.25586530854115
C            0.48864250954639        0.70508340690154       -0.31478387968105
O           -0.11429297630737        1.21458180368515        0.82776324683774
C           -0.98773392872450        0.88292821448860       -0.22124545963509
C           -1.90039774582341       -0.27665314594336       -0.06640958802313
O           -1.75893903832786       -1.20170081751024        0.68595474911855
H            2.70629721495563        0.01315909594929        1.10237814489492
H            3.16847774467662        0.09443229511177       -0.60119241728974
H            3.09878206847881       -1.46682195701972        0.22098691389123
H            0.64661114759013       -1.26997258015319        0.47231371517492
H            1.08991807681134       -1.11600400933821       -1.23866590112137
H            1.00905141907148        1.44834451339069       -0.92077100007347
H           -1.42141137525487        1.73448069103053       -0.74208003558366
H           -2.77004584357026       -0.21796340765809       -0.75123609939536
15
 energy: -22.874045872232 gnorm: 0.001089353714 xtb: 6.7.1 (edcfbbe)
C            2.62953087801709       -0.49012396845101        0.14288154934343
C            1.16374072369415       -0.64273172707768       -0.25829943132848
C            0.48914385536899        0.70574990689800       -0.31671983065571
O           -0.11436902365495        1.21443093898015        0.82590935091099
C           -0.98739214168770        0.88193843497529       -0.22321109367817
C           -1.89899824775981       -0.27866705140870       -0.06685722343212
O           -1.75922529078646       -1.19948214382809        0.69138811509813
H            2.70365192051739        0.00828841226436        1.10650452350777
H            3.17104041074590        0.09785824339664       -0.59551791942349
H            3.09827917737279       -1.46752633132431        0.21964020247945
H            0.64518862067263       -1.27046094174393        0.46751119207262
H            1.09283487696905       -1.11353388029558       -1.24219533448514
H            1.00899378590685        1.44961366912059       -0.92242415173826
H           -1.42211485594416        1.73303592423030       -0.74382816338881
H           -2.77254513883187       -0.21768946803601       -0.74618860208235
15
 energy: -22.874052390193 gnorm: 0.000765011194 xtb: 6.7.1 (edcfbbe)
C            2.62906198078972       -0.49068086079939        0.14421011712492
C            1.16419946717198       -0.64218507864880       -0.26070489872859
C            0.48922354386468        0.70605925604421       -0.31894611649293
O           -0.11349156628964        1.21446837248708        0.82423521200642
C           -0.98735092998463        0.88171398656152       -0.22409898733503
C           -1.90027155836592       -0.27768433788247       -0.06329149107341
O           -1.75949423350035       -1.19673163199475        0.69709255056001
H            2.70100659022221        0.00306700038851        1.11062062421500
H            3.17254099545296        0.10170224606217       -0.58991603333540
H            3.09810782149088       -1.46811031204128        0.21731225215768
H            0.64392766124211       -1.27109934650515        0.46307423242085
H            1.09555858174248       -1.11162700525579       -1.24554172600065
H            1.00851433588072        1.45017933376181       -0.92478163112967
H           -1.42280118468378        1.73252049397339       -0.74443549936897
H           -2.77097195443352       -0.22089209845105       -0.74623542182039
15
 energy: -22.874057247884 gnorm: 0.000588898792 xtb: 6.7.1 (edcfbbe)
C            2.62792204065807       -0.49109707095088        0.14637904508835
C            1.16454657137129       -0.64210514358084       -0.26346016025977
C            0.48933740700847        0.70609056447172       -0.32118407534567
O           -0.11155781019806        1.21561097963917        0.82254527632466
C           -0.98696021511025        0.88181145190626       -0.22428708385687
C           -1.90017763728758       -0.27699818685840       -0.06036216377720
O           -1.75894970286986       -1.19344443298242        0.70265467332226
H            2.69700843993138       -0.00274739900584        1.11568573191904
H            3.17157862354193        0.10624538629040       -0.58307016040083
H            3.09841014561129       -1.46831003224202        0.21415289467321
H            0.64280009134437       -1.27258856716766        0.45775603125092
H            1.09911362938216       -1.10963209254824       -1.24940331178195
H            1.00748394412538        1.44983183290553       -0.92844213674827
H           -1.42331441000039        1.73194157566538       -0.74503636476628
H           -2.76948156690829       -0.22390884784215       -0.74533501244176
15
 energy: -22.874061997034 gnorm: 0.000506381077 xtb: 6.7.1 (edcfbbe)
C            2.62669533356182       -0.49110858556936        0.14867439739466