15
 energy: -22.874077552690 gnorm: 0.000031405748 xtb: 6.7.1 (edcfbbe)
C            2.61778062557181       -0.49196868826923        0.16583162463539
C            1.16818301273050       -0.64261293891112       -0.29147271259097
C            0.49037237433308        0.70416852388220       -0.34547515132394
O           -0.09069475859159        1.22018278826633        0.80558295653188
C           -0.98400390334225        0.88182767093366       -0.22426249726113
C           -1.89473788609112       -0.27523459322295       -0.03882261379115
O           -1.74362102025697       -1.18525222530618        0.73016632284871
H            2.65233216715762       -0.03149256421953        1.15029029651183
H            3.17745862661333        0.13072603701069       -0.52912921703068
H            3.09461328443339       -1.46698164537197        0.21994279672895
H            0.62945051863158       -1.28907871038698        0.40242066634538
H            1.13462134564172       -1.09071100751442       -1.28780067709514
H            0.99859233582085        1.44476329880319       -0.96502559350833
H           -1.42821261214579        1.72940229869932       -0.74265816619231
H           -2.77437455990629       -0.22703822669305       -0.71099485160869
