      -----------------------------------------------------------      
     |                   =====================                   |     
     |                           x T B                           |     
     |                   =====================                   |     
     |                         S. Grimme                         |     
     |          Mulliken Center for Theoretical Chemistry        |     
     |                    University of Bonn                     |     
      -----------------------------------------------------------      

   * xtb version 6.7.0 (08769fc) compiled by 'albert@albert-system' on 2024-03-04

   xtb is free software: you can redistribute it and/or modify it under
   the terms of the GNU Lesser General Public License as published by
   the Free Software Foundation, either version 3 of the License, or
   (at your option) any later version.
   
   xtb is distributed in the hope that it will be useful,
   but WITHOUT ANY WARRANTY; without even the implied warranty of
   MERCHANTABILITY or FITNESS FOR A PARTICULAR PURPOSE.  See the
   GNU Lesser General Public License for more details.
   
   Cite this work as:
   * C. Bannwarth, E. Caldeweyher, S. Ehlert, A. Hansen, P. Pracht,
     J. Seibert, S. Spicher, S. Grimme, WIREs Comput. Mol. Sci., 2020, 11,
     e01493. DOI: 10.1002/wcms.1493
   
   for GFN2-xTB:
   * C. Bannwarth, S. Ehlert and S. Grimme., J. Chem. Theory Comput., 2019,
     15, 1652-1671. DOI: 10.1021/acs.jctc.8b01176
   for GFN1-xTB:
   * S. Grimme, C. Bannwarth, P. Shushkov, J. Chem. Theory Comput., 2017,
     13, 1989-2009. DOI: 10.1021/acs.jctc.7b00118
   for GFN0-xTB:
   * P. Pracht, E. Caldeweyher, S. Ehlert, S. Grimme, ChemRxiv, 2019, preprint.
     DOI: 10.26434/chemrxiv.8326202.v1
   for GFN-FF:
   * S. Spicher and S. Grimme, Angew. Chem. Int. Ed., 2020, 59, 15665-15673.
     DOI: 10.1002/anie.202004239
   
   for ALPB and GBSA implicit solvation:
   * S. Ehlert, M. Stahn, S. Spicher, S. Grimme, J. Chem. Theory Comput.,
     2021, 17, 4250-4261. DOI: 10.1021/acs.jctc.1c00471
   
   for ddCOSMO and CPCM-X implicit solvation:
   * M. Stahn, S. Ehlert, S. Grimme, J. Phys. Chem. A,
     2023, XX, XXXX-XXXX. DOI: 10.1021/acs.jpca.3c04382
   
   for DFT-D4:
   * E. Caldeweyher, C. Bannwarth and S. Grimme, J. Chem. Phys., 2017,
     147, 034112. DOI: 10.1063/1.4993215
   * E. Caldeweyher, S. Ehlert, A. Hansen, H. Neugebauer, S. Spicher,
     C. Bannwarth and S. Grimme, J. Chem. Phys., 2019, 150, 154122.
     DOI: 10.1063/1.5090222
   * E. Caldeweyher, J.-M. Mewes, S. Ehlert and S. Grimme, Phys. Chem. Chem. Phys.
     2020, 22, 8499-8512. DOI: 10.1039/D0CP00502A
   
   for sTDA-xTB:
   * S. Grimme and C. Bannwarth, J. Chem. Phys., 2016, 145, 054103.
     DOI: 10.1063/1.4959605
   
   in the mass-spec context:
   * V. Asgeirsson, C. Bauer and S. Grimme, Chem. Sci., 2017, 8, 4879.
     DOI: 10.1039/c7sc00601b
   * J. Koopman and S. Grimme, ACS Omega 2019, 4, 12, 15120-15133.
     DOI: 10.1021/acsomega.9b02011
   
   for metadynamics refer to:
   * S. Grimme, J. Chem. Theory Comput., 2019, 155, 2847-2862
     DOI: 10.1021/acs.jctc.9b00143
   
   for SPH calculations refer to:
   * S. Spicher and S. Grimme, J. Chem. Theory Comput., 2021, 17, 1701-1714
     DOI: 10.1021/acs.jctc.0c01306
   
   for ONIOM refer to:
   * C. Plett, A. Katbashev, S. Ehlert, S. Grimme, M. Bursch,
     Phys. Chem. Chem. Phys., 2023, 25, 17860-17868. DOI: 10.1039/D3CP02178E
   
   for DIPRO refer to:
   * J. Kohn, N. Gildemeister, S. Grimme, D. Fazzi, A. Hansen,
     J. Chem. Phys., 2023, just accepted.
   
   for PTB refer to:
   * S. Grimme, M. Mueller, A. Hansen, J. Chem. Phys., 2023, 158, 124111.
     DOI: 10.1063/5.0137838
   
   with help from (in alphabetical order)
   P. Atkinson, C. Bannwarth, F. Bohle, G. Brandenburg, E. Caldeweyher
   M. Checinski, S. Dohm, S. Ehlert, S. Ehrlich, I. Gerasimov, C. Hölzer
   A. Katbashev, J. Kohn, J. Koopman, C. Lavigne, S. Lehtola, F. März, M. Müller,
   F. Musil, H. Neugebauer, J. Pisarek, C. Plett, P. Pracht, F. Pultar,
   J. Seibert, P. Shushkov, S. Spicher, M. Stahn, M. Steiner, T. Strunk,
   J. Stückrath, T. Rose, and J. Unsleber
   
 * started run on 2024/08/07 at 20:30:57.345     
   ID    Z sym.   atoms
    1    6 C      1-3, 5, 6
    2    8 O      4, 7
    3    1 H      8-15

           -------------------------------------------------
          |                Calculation Setup                |
           -------------------------------------------------

          program call               : /home/mvotokps/xtb-dist/bin/xtb crest_best.xyz --gfn 2 --alpb toluene --opt vtight -c 0 --iterations 4000
          coordinate file            : crest_best.xyz
          omp threads                :                     8


           -------------------------------------------------
          |                 G F N 2 - x T B                 |
           -------------------------------------------------

        Reference                      10.1021/acs.jctc.8b01176
      * Hamiltonian:
        H0-scaling (s, p, d)           1.850000    2.230000    2.230000
        zeta-weighting                 0.500000
      * Dispersion:
        s8                             2.700000
        a1                             0.520000
        a2                             5.000000
        s9                             5.000000
      * Repulsion:
        kExp                           1.500000    1.000000
        rExp                           1.000000
      * Coulomb:
        alpha                          2.000000
        third order                    shell-resolved
        anisotropic                    true
        a3                             3.000000
        a5                             4.000000
        cn-shift                       1.200000
        cn-exp                         4.000000
        max-rad                        5.000000

      * Solvation model:               ALPB
        Solvent                        toluene
        Parameter file                 internal GFN2-xTB/ALPB
        Dielectric constant                7.0000E+00
        Reference state                gsolv [1 M gas/solution]
        Free energy shift                  2.2081E-03 Eh       1.3856E+00 kcal/mol
        Temperature                        2.9815E+02 K
        Density                            8.6700E-01 kg/L
        Solvent mass                       7.8110E+01 g/mol
        Interaction kernel             P16
        Born radius scaling (c1)           1.7172E+00
        Born radii integrator          GBOBC
        Born offset                        0.0000E+00 a0       0.0000E+00 AA
        H-bond correction              false
        Ion screening                  false
        Surface tension                    1.0000E-05 Eh       1.5569E+01 dyn/cm
        Grid points                               230 per atom

          ...................................................
          :                      SETUP                      :
          :.................................................:
          :  # basis functions                  36          :
          :  # atomic orbitals                  36          :
          :  # shells                           22          :
          :  # electrons                        40          :
          :  max. iterations                  4000          :
          :  Hamiltonian                  GFN2-xTB          :
          :  restarted?                      false          :
          :  GBSA solvation                   true          :
          :  PC potential                    false          :
          :  electronic temp.          300.0000000     K    :
          :  accuracy                    1.0000000          :
          :  -> integral cutoff          0.2500000E+02      :
          :  -> integral neglect         0.1000000E-07      :
          :  -> SCF convergence          0.1000000E-05 Eh   :
          :  -> wf. convergence          0.1000000E-03 e    :
          :  Broyden damping             0.4000000          :
          :  net charge                          0          :
          :  unpaired electrons                  0          :
          ...................................................

 iter      E             dE          RMSdq      gap      omega  full diag
   1    -23.0544334 -0.230544E+02  0.459E+00    4.08       0.0  T
   2    -23.1028161 -0.483826E-01  0.224E+00    3.19       1.0  T
   3    -23.1049370 -0.212098E-02  0.138E+00    3.48       1.0  T
   4    -23.1087409 -0.380382E-02  0.192E-01    3.18       1.0  T
   5    -23.1088731 -0.132285E-03  0.923E-02    3.23       1.0  T
   6    -23.1088894 -0.162716E-04  0.427E-02    3.24       1.0  T
   7    -23.1088947 -0.530141E-05  0.155E-02    3.24       1.7  T
   8    -23.1088952 -0.527232E-06  0.457E-03    3.24       5.7  T
   9    -23.1088953 -0.548183E-07  0.191E-03    3.24      13.5  T
  10    -23.1088953 -0.426191E-08  0.490E-04    3.24      52.7  T
  11    -23.1088953 -0.325532E-09  0.122E-04    3.24     212.5  T

   *** convergence criteria satisfied after 11 iterations ***

         #    Occupation            Energy/Eh            Energy/eV
      -------------------------------------------------------------
         1        2.0000           -0.7467311             -20.3196
       ...           ...                  ...                  ...
        14        2.0000           -0.4944124             -13.4536
        15        2.0000           -0.4929148             -13.4129
        16        2.0000           -0.4675452             -12.7226
        17        2.0000           -0.4512921             -12.2803
        18        2.0000           -0.4418052             -12.0221
        19        2.0000           -0.4290326             -11.6746
        20        2.0000           -0.4142588             -11.2726 (HOMO)
        21                         -0.2952681              -8.0347 (LUMO)
        22                         -0.1220478              -3.3211
        23                          0.0363058               0.9879
        24                          0.0578959               1.5754
        25                          0.0935088               2.5445
       ...                                ...                  ...
        36                          0.6088030              16.5664
      -------------------------------------------------------------
                  HL-Gap            0.1189907 Eh            3.2379 eV
             Fermi-level           -0.3547635 Eh           -9.6536 eV

 SCC (total)                   0 d,  0 h,  0 min,  0.131 sec
 SCC setup                      ...        0 min,  0.001 sec (  0.509%)
 Dispersion                     ...        0 min,  0.000 sec (  0.129%)
 classical contributions        ...        0 min,  0.000 sec (  0.011%)
 integral evaluation            ...        0 min,  0.001 sec (  0.463%)
 iterations                     ...        0 min,  0.127 sec ( 97.075%)
 molecular gradient             ...        0 min,  0.002 sec (  1.653%)
 printout                       ...        0 min,  0.000 sec (  0.125%)

         :::::::::::::::::::::::::::::::::::::::::::::::::::::
         ::                     SUMMARY                     ::
         :::::::::::::::::::::::::::::::::::::::::::::::::::::
         :: total energy             -22.862955968155 Eh    ::
         :: total w/o Gsasa/hb       -22.854960353476 Eh    ::
         :: gradient norm              0.053312656266 Eh/a0 ::
         :: HOMO-LUMO gap              3.237901010844 eV    ::
         ::.................................................::
         :: SCC energy               -23.108881409354 Eh    ::
         :: -> isotropic ES            0.040048888753 Eh    ::
         :: -> anisotropic ES          0.001156426906 Eh    ::
         :: -> anisotropic XC          0.004351163874 Eh    ::
         :: -> dispersion             -0.008673357466 Eh    ::
         :: -> Gsolv                  -0.009689841677 Eh    ::
         ::    -> Gelec               -0.001694226998 Eh    ::
         ::    -> Gsasa               -0.010203757818 Eh    ::
         ::    -> Ghb                  0.000000000000 Eh    ::
         ::    -> Gshift               0.002208143139 Eh    ::
         :: repulsion energy           0.245925441199 Eh    ::
         :: add. restraining           0.000000000000 Eh    ::
         :: total charge              -0.000000000000 e     ::
         :::::::::::::::::::::::::::::::::::::::::::::::::::::

      ----------------------------------------------------------- 
     |                   =====================                   |
     |                        A N C O P T                        |
     |                   =====================                   |
     |               Approximate Normal Coordinate               |
     |                Rational Function Optimizer                |
      ----------------------------------------------------------- 
      ----------------------------------------------------------- 
     |                   =====================                   |
     |                        A N C O P T                        |
     |                   =====================                   |
     |               Approximate Normal Coordinate               |
     |                Rational Function Optimizer                |
      ----------------------------------------------------------- 

          ...................................................
          :                      SETUP                      :
          :.................................................:
          :   optimization level         verytight          :
          :   max. optcycles                   300          :
          :   ANC micro-cycles                  20          :
          :   degrees of freedom                39          :
          :.................................................:
          :   RF solver                   davidson          :
          :   write xtbopt.log                true          :
          :   linear?                        false          :
          :   energy convergence         0.1000000E-06 Eh   :
          :   grad. convergence          0.2000000E-03 Eh/α :
          :   maxmium RF displ.          1.0000000          :
          :   Hlow (freq-cutoff)         0.1000000E-01      :
          :   Hmax (freq-cutoff)         5.0000000          :
          :   S6 in model hess.         20.0000000          :
          ...................................................

generating ANC from model Hessian ...
Using Lindh-Hessian (1995)
 Shifting diagonal of input Hessian by   6.542555635275896E-003
 Lowest  eigenvalues of input Hessian
    0.000000    0.000000    0.000000    0.000000    0.000000    0.000000
    0.010000    0.013044    0.013876    0.018099    0.021692    0.025771
    0.045556    0.052416    0.053686    0.060787    0.064612    0.070780
 Highest eigenvalues
    1.218492    1.253119    1.275996    1.419635    1.828405    2.242866
 

........................................................................
.............................. CYCLE    1 ..............................
........................................................................

 iter      E             dE          RMSdq      gap      omega  full diag
   1    -23.1088953 -0.231089E+02  0.382E-05    3.24       0.0  T
   2    -23.1088953 -0.863309E-12  0.215E-05    3.24    1201.8  T
   3    -23.1088953 -0.710543E-13  0.618E-06    3.24    4175.9  T
     SCC iter.                  ...        0 min,  0.104 sec
     gradient                   ...        0 min,  0.001 sec
 * total energy  :   -22.8629560 Eh     change       -0.4125411E-10 Eh
   gradient norm :     0.0533131 Eh/α   predicted     0.0000000E+00 (-100.00%)
   displ. norm   :     0.3553439 α      lambda       -0.8498782E-02
   maximum displ.:     0.1790586 α      in ANC's #2, #4, #8, ...

........................................................................
.............................. CYCLE    2 ..............................
........................................................................

 iter      E             dE          RMSdq      gap      omega  full diag
   1    -23.1150172 -0.231150E+02  0.341E-01    3.23       0.0  T
   2    -23.1150375 -0.202512E-04  0.205E-01    3.25       1.0  T
   3    -23.1150389 -0.140153E-05  0.172E-02    3.25       1.5  T
   4    -23.1150408 -0.187144E-05  0.710E-03    3.25       3.6  T
   5    -23.1150408 -0.608122E-07  0.331E-03    3.25       7.8  T
   6    -23.1150408 -0.151992E-07  0.135E-03    3.25      19.2  T
   7    -23.1150409 -0.808018E-08  0.432E-04    3.25      59.8  T
   8    -23.1150409 -0.291703E-09  0.198E-04    3.25     130.1  T
     SCC iter.                  ...        0 min,  0.101 sec
     gradient                   ...        0 min,  0.002 sec
 * total energy  :   -22.8685793 Eh     change       -0.5623342E-02 Eh
   gradient norm :     0.0248693 Eh/α   predicted    -0.4785972E-02 ( -14.89%)
   displ. norm   :     0.3066353 α      lambda       -0.2900229E-02
   maximum displ.:     0.1727563 α      in ANC's #2, #3, #4, ...

........................................................................
.............................. CYCLE    3 ..............................
........................................................................

 iter      E             dE          RMSdq      gap      omega  full diag
   1    -23.1191721 -0.231192E+02  0.232E-01    3.25       0.0  T
   2    -23.1191783 -0.626083E-05  0.140E-01    3.26       1.0  T
   3    -23.1191756  0.273573E-05  0.201E-02    3.26       1.3  T
   4    -23.1191799 -0.427400E-05  0.480E-03    3.26       5.4  T
   5    -23.1191799 -0.395063E-07  0.218E-03    3.26      11.8  T
   6    -23.1191799 -0.411053E-08  0.781E-04    3.26      33.0  T
   7    -23.1191799 -0.667303E-09  0.223E-04    3.26     115.7  T
     SCC iter.                  ...        0 min,  0.220 sec
     gradient                   ...        0 min,  0.020 sec
 * total energy  :   -22.8697854 Eh     change       -0.1206060E-02 Eh
   gradient norm :     0.0234473 Eh/α   predicted    -0.1586457E-02 (  31.54%)
   displ. norm   :     0.1554976 α      lambda       -0.9245148E-03
   maximum displ.:     0.0908803 α      in ANC's #1, #2, #3, ...

........................................................................
.............................. CYCLE    4 ..............................
........................................................................

 iter      E             dE          RMSdq      gap      omega  full diag
   1    -23.1216208 -0.231216E+02  0.171E-01    3.34       0.0  T
   2    -23.1216251 -0.428392E-05  0.102E-01    3.33       1.0  T
   3    -23.1216244  0.705153E-06  0.147E-02    3.33       1.8  T
   4    -23.1216260 -0.159611E-05  0.397E-03    3.33       6.5  T
   5    -23.1216260 -0.410024E-07  0.182E-03    3.33      14.2  T
   6    -23.1216260 -0.276628E-08  0.840E-04    3.33      30.7  T
   7    -23.1216260 -0.252380E-08  0.221E-04    3.33     117.0  T
     SCC iter.                  ...        0 min,  0.162 sec
     gradient                   ...        0 min,  0.005 sec
 * total energy  :   -22.8702733 Eh     change       -0.4879639E-03 Eh
   gradient norm :     0.0126474 Eh/α   predicted    -0.4734337E-03 (  -2.98%)
   displ. norm   :     0.1107174 α      lambda       -0.3738790E-03
   maximum displ.:     0.0803488 α      in ANC's #1, #2, #3, ...

........................................................................
.............................. CYCLE    5 ..............................
........................................................................

 iter      E             dE          RMSdq      gap      omega  full diag
   1    -23.1225537 -0.231226E+02  0.774E-02    3.36       0.0  T
   2    -23.1225553 -0.163925E-05  0.464E-02    3.36       1.0  T
   3    -23.1225550  0.303791E-06  0.730E-03    3.36       3.5  T
   4    -23.1225555 -0.536155E-06  0.158E-03    3.36      16.3  T
   5    -23.1225556 -0.585626E-08  0.813E-04    3.36      31.8  T
   6    -23.1225556 -0.170644E-08  0.352E-04    3.36      73.3  T
     SCC iter.                  ...        0 min,  0.156 sec
     gradient                   ...        0 min,  0.006 sec
 * total energy  :   -22.8705434 Eh     change       -0.2701036E-03 Eh
   gradient norm :     0.0055606 Eh/α   predicted    -0.1892297E-03 ( -29.94%)
   displ. norm   :     0.2518189 α      lambda       -0.4097872E-03
   maximum displ.:     0.1690549 α      in ANC's #1, #3, #2, ...

........................................................................
.............................. CYCLE    6 ..............................
........................................................................

 iter      E             dE          RMSdq      gap      omega  full diag
   1    -23.1216335 -0.231216E+02  0.222E-01    3.37       0.0  T
   2    -23.1216371 -0.361021E-05  0.131E-01    3.37       1.0  T
   3    -23.1216355  0.160275E-05  0.146E-02    3.37       1.8  T
   4    -23.1216381 -0.260074E-05  0.313E-03    3.37       8.3  T
   5    -23.1216382 -0.168015E-07  0.176E-03    3.37      14.6  T
   6    -23.1216382 -0.439075E-08  0.766E-04    3.37      33.7  T
   7    -23.1216382 -0.168266E-08  0.218E-04    3.37     118.5  T
     SCC iter.                  ...        0 min,  0.134 sec
     gradient                   ...        0 min,  0.047 sec
 * total energy  :   -22.8708632 Eh     change       -0.3197693E-03 Eh
   gradient norm :     0.0046126 Eh/α   predicted    -0.2178869E-03 ( -31.86%)
   displ. norm   :     0.3951232 α      lambda       -0.5308627E-03
   maximum displ.:     0.2752072 α      in ANC's #1, #3, #5, ...

........................................................................
.............................. CYCLE    7 ..............................
........................................................................

 iter      E             dE          RMSdq      gap      omega  full diag
   1    -23.1189826 -0.231190E+02  0.398E-01    3.34       0.0  T
   2    -23.1189995 -0.169235E-04  0.235E-01    3.35       1.0  T
   3    -23.1189947  0.478507E-05  0.267E-02    3.35       1.0  T
   4    -23.1190027 -0.801550E-05  0.600E-03    3.36       4.3  T
   5    -23.1190029 -0.138823E-06  0.327E-03    3.36       7.9  T
   6    -23.1190029 -0.175883E-07  0.165E-03    3.36      15.6  T
   7    -23.1190029 -0.498632E-08  0.454E-04    3.36      56.9  T
   8    -23.1190029 -0.720469E-09  0.184E-04    3.36     140.2  T
     SCC iter.                  ...        0 min,  0.139 sec
     gradient                   ...        0 min,  0.003 sec
 * total energy  :   -22.8712364 Eh     change       -0.3732192E-03 Eh
   gradient norm :     0.0128578 Eh/α   predicted    -0.3068639E-03 ( -17.78%)
   displ. norm   :     0.3217581 α      lambda       -0.5471251E-03
   maximum displ.:     0.2490421 α      in ANC's #1, #5, #3, ...

........................................................................
.............................. CYCLE    8 ..............................
........................................................................

 iter      E             dE          RMSdq      gap      omega  full diag
   1    -23.1192211 -0.231192E+02  0.317E-01    3.35       0.0  T
   2    -23.1192306 -0.954039E-05  0.187E-01    3.36       1.0  T
   3    -23.1192267  0.390334E-05  0.221E-02    3.36       1.2  T
   4    -23.1192327 -0.593831E-05  0.438E-03    3.36       5.9  T
   5    -23.1192327 -0.582146E-07  0.242E-03    3.36      10.7  T
   6    -23.1192328 -0.846036E-08  0.117E-03    3.36      22.0  T
   7    -23.1192328 -0.261454E-08  0.323E-04    3.36      79.9  T
   8    -23.1192328 -0.376311E-09  0.139E-04    3.36     185.8  T
     SCC iter.                  ...        0 min,  0.124 sec
     gradient                   ...        0 min,  0.001 sec
 * total energy  :   -22.8716653 Eh     change       -0.4288893E-03 Eh
   gradient norm :     0.0144245 Eh/α   predicted    -0.3018835E-03 ( -29.61%)
   displ. norm   :     0.3633270 α      lambda       -0.1061912E-02
   maximum displ.:     0.2556080 α      in ANC's #1, #5, #2, ...

........................................................................
.............................. CYCLE    9 ..............................
........................................................................

 iter      E             dE          RMSdq      gap      omega  full diag
   1    -23.1259964 -0.231260E+02  0.324E-01    3.42       0.0  T
   2    -23.1260015 -0.510716E-05  0.192E-01    3.42       1.0  T
   3    -23.1259995  0.197798E-05  0.168E-02    3.42       1.5  T
   4    -23.1260033 -0.376582E-05  0.438E-03    3.42       5.9  T
   5    -23.1260033 -0.118199E-07  0.205E-03    3.42      12.6  T
   6    -23.1260033 -0.894876E-08  0.513E-04    3.42      50.3  T
   7    -23.1260033 -0.703771E-09  0.252E-04    3.42     102.4  T
     SCC iter.                  ...        0 min,  0.102 sec
     gradient                   ...        0 min,  0.002 sec
 * total energy  :   -22.8721906 Eh     change       -0.5253230E-03 Eh
   gradient norm :     0.0114355 Eh/α   predicted    -0.6010481E-03 (  14.41%)
   displ. norm   :     0.4878367 α      lambda       -0.8283686E-03
   maximum displ.:     0.3254407 α      in ANC's #1, #5, #3, ...

........................................................................
.............................. CYCLE   10 ..............................
........................................................................

 iter      E             dE          RMSdq      gap      omega  full diag
   1    -23.1190168 -0.231190E+02  0.540E-01    3.35       0.0  T
   2    -23.1190659 -0.491074E-04  0.321E-01    3.37       1.0  T
   3    -23.1190578  0.811642E-05  0.371E-02    3.37       1.0  T
   4    -23.1190724 -0.146171E-04  0.896E-03    3.37       2.9  T
   5    -23.1190728 -0.386957E-06  0.506E-03    3.37       5.1  T
   6    -23.1190728 -0.586205E-07  0.248E-03    3.37      10.4  T
   7    -23.1190728 -0.983075E-08  0.590E-04    3.37      43.8  T
   8    -23.1190728 -0.112378E-08  0.282E-04    3.37      91.6  T
     SCC iter.                  ...        0 min,  0.104 sec
     gradient                   ...        0 min,  0.006 sec
 * total energy  :   -22.8721896 Eh     change        0.1073544E-05 Eh
   gradient norm :     0.0250709 Eh/α   predicted    -0.5127644E-03 (*******%)
   displ. norm   :     0.2068598 α      lambda       -0.1130437E-02
   maximum displ.:     0.1466659 α      in ANC's #1, #5, #3, ...

........................................................................
.............................. CYCLE   11 ..............................
........................................................................

 iter      E             dE          RMSdq      gap      omega  full diag
   1    -23.1248000 -0.231248E+02  0.223E-01    3.38       0.0  T
   2    -23.1248064 -0.646121E-05  0.132E-01    3.38       1.0  T
   3    -23.1248032  0.321229E-05  0.190E-02    3.38       1.4  T
   4    -23.1248077 -0.453440E-05  0.377E-03    3.38       6.8  T
   5    -23.1248078 -0.413130E-07  0.204E-03    3.38      12.7  T
   6    -23.1248078 -0.267540E-08  0.686E-04    3.38      37.6  T
   7    -23.1248078 -0.879400E-09  0.209E-04    3.38     123.2  T
     SCC iter.                  ...        0 min,  0.101 sec
     gradient                   ...        0 min,  0.003 sec
 * total energy  :   -22.8726891 Eh     change       -0.4995210E-03 Eh
   gradient norm :     0.0124318 Eh/α   predicted    -0.5894022E-03 (  17.99%)
   displ. norm   :     0.1318099 α      lambda       -0.2545716E-03
   maximum displ.:     0.1065356 α      in ANC's #1, #2, #5, ...

........................................................................
.............................. CYCLE   12 ..............................
........................................................................

 iter      E             dE          RMSdq      gap      omega  full diag
   1    -23.1251810 -0.231252E+02  0.123E-01    3.42       0.0  T
   2    -23.1251828 -0.175619E-05  0.725E-02    3.41       1.0  T
   3    -23.1251827  0.525898E-07  0.651E-03    3.41       4.0  T
   4    -23.1251831 -0.316696E-06  0.248E-03    3.41      10.4  T
   5    -23.1251831 -0.306668E-07  0.898E-04    3.41      28.7  T
   6    -23.1251831 -0.965631E-09  0.474E-04    3.41      54.5  T
     SCC iter.                  ...        0 min,  0.099 sec
     gradient                   ...        0 min,  0.001 sec
 * total energy  :   -22.8728767 Eh     change       -0.1875974E-03 Eh
   gradient norm :     0.0045320 Eh/α   predicted    -0.1294980E-03 ( -30.97%)
   displ. norm   :     0.4256932 α      lambda       -0.5175183E-03
   maximum displ.:     0.2945242 α      in ANC's #1, #2, #3, ...

........................................................................
.............................. CYCLE   13 ..............................
........................................................................

 iter      E             dE          RMSdq      gap      omega  full diag
   1    -23.1220565 -0.231221E+02  0.445E-01    3.41       0.0  T
   2    -23.1220676 -0.110347E-04  0.263E-01    3.41       1.0  T
   3    -23.1220651  0.243701E-05  0.208E-02    3.41       1.2  T
   4    -23.1220703 -0.517913E-05  0.590E-03    3.41       4.4  T
   5    -23.1220704 -0.704601E-07  0.348E-03    3.41       7.4  T
   6    -23.1220704 -0.182811E-07  0.119E-03    3.41      21.8  T
   7    -23.1220704 -0.349911E-08  0.354E-04    3.41      72.9  T
   8    -23.1220704 -0.387640E-09  0.171E-04    3.41     150.6  T
     SCC iter.                  ...        0 min,  0.108 sec
     gradient                   ...        0 min,  0.001 sec
 * total energy  :   -22.8731985 Eh     change       -0.3218505E-03 Eh
   gradient norm :     0.0128668 Eh/α   predicted    -0.3056524E-03 (  -5.03%)
   displ. norm   :     0.1366514 α      lambda       -0.2345372E-03
   maximum displ.:     0.0740892 α      in ANC's #1, #2, #26, ...

........................................................................
.............................. CYCLE   14 ..............................
........................................................................

 iter      E             dE          RMSdq      gap      omega  full diag
   1    -23.1236195 -0.231236E+02  0.155E-01    3.42       0.0  T
   2    -23.1236201 -0.550904E-06  0.915E-02    3.42       1.0  T
   3    -23.1236201 -0.236342E-08  0.481E-03    3.42       5.4  T
   4    -23.1236203 -0.229364E-06  0.185E-03    3.42      13.9  T
   5    -23.1236203 -0.467881E-08  0.869E-04    3.42      29.7  T
   6    -23.1236203 -0.116399E-08  0.267E-04    3.42      96.5  T
     SCC iter.                  ...        0 min,  0.103 sec
     gradient                   ...        0 min,  0.003 sec
 * total energy  :   -22.8733840 Eh     change       -0.1854257E-03 Eh
   gradient norm :     0.0099049 Eh/α   predicted    -0.1194580E-03 ( -35.58%)
   displ. norm   :     0.2377470 α      lambda       -0.3095617E-03
   maximum displ.:     0.1521620 α      in ANC's #1, #5, #26, ...

........................................................................
.............................. CYCLE   15 ..............................
........................................................................

 iter      E             dE          RMSdq      gap      omega  full diag
   1    -23.1250510 -0.231251E+02  0.284E-01    3.44       0.0  T
   2    -23.1250526 -0.160968E-05  0.168E-01    3.44       1.0  T
   3    -23.1250526  0.243683E-07  0.856E-03    3.44       3.0  T
   4    -23.1250533 -0.762569E-06  0.338E-03    3.44       7.6  T
   5    -23.1250533 -0.134301E-07  0.130E-03    3.44      19.8  T
   6    -23.1250533 -0.282088E-08  0.452E-04    3.44      57.1  T
   7    -23.1250533 -0.535191E-09  0.164E-04    3.44     157.8  T
     SCC iter.                  ...        0 min,  0.111 sec
     gradient                   ...        0 min,  0.001 sec
 * total energy  :   -22.8736069 Eh     change       -0.2229606E-03 Eh
   gradient norm :     0.0054163 Eh/α   predicted    -0.1635316E-03 ( -26.65%)
   displ. norm   :     0.2430910 α      lambda       -0.1923542E-03
   maximum displ.:     0.1408003 α      in ANC's #1, #5, #26, ...

........................................................................
.............................. CYCLE   16 ..............................
........................................................................

 iter      E             dE          RMSdq      gap      omega  full diag
   1    -23.1254456 -0.231254E+02  0.320E-01    3.45       0.0  T
   2    -23.1254477 -0.210782E-05  0.189E-01    3.45       1.0  T
   3    -23.1254482 -0.508436E-06  0.731E-03    3.45       3.5  T
   4    -23.1254486 -0.386458E-06  0.380E-03    3.45       6.8  T
   5    -23.1254486 -0.136578E-07  0.173E-03    3.45      14.9  T
   6    -23.1254486 -0.105794E-07  0.456E-04    3.45      56.7  T
   7    -23.1254486 -0.389988E-09  0.166E-04    3.45     155.8  T
     SCC iter.                  ...        0 min,  0.099 sec
     gradient                   ...        0 min,  0.001 sec
 * total energy  :   -22.8737193 Eh     change       -0.1123915E-03 Eh
   gradient norm :     0.0070086 Eh/α   predicted    -0.1018588E-03 (  -9.37%)
   displ. norm   :     0.1323798 α      lambda       -0.2661445E-03
   maximum displ.:     0.0704727 α      in ANC's #26, #5, #25, ...

........................................................................
.............................. CYCLE   17 ..............................
........................................................................

 iter      E             dE          RMSdq      gap      omega  full diag
   1    -23.1314459 -0.231314E+02  0.183E-01    3.51       0.0  T
   2    -23.1314506 -0.472782E-05  0.108E-01    3.50       1.0  T
   3    -23.1314502  0.438094E-06  0.108E-02    3.51       2.4  T
   4    -23.1314512 -0.102314E-05  0.296E-03    3.50       8.7  T
   5    -23.1314512 -0.358334E-07  0.154E-03    3.50      16.7  T
   6    -23.1314512 -0.476792E-08  0.815E-04    3.50      31.7  T
   7    -23.1314512 -0.107133E-08  0.134E-04    3.50     193.4  T
     SCC iter.                  ...        0 min,  0.102 sec
     gradient                   ...        0 min,  0.003 sec
 * total energy  :   -22.8736711 Eh     change        0.4825871E-04 Eh
   gradient norm :     0.0138653 Eh/α   predicted    -0.1354050E-03 (-380.58%)
   displ. norm   :     0.1887235 α      lambda       -0.3342000E-03
   maximum displ.:     0.1401659 α      in ANC's #1, #5, #26, ...

........................................................................
.............................. CYCLE   18 ..............................
........................................................................

 iter      E             dE          RMSdq      gap      omega  full diag
   1    -23.1257262 -0.231257E+02  0.218E-01    3.47       0.0  T
   2    -23.1257317 -0.548123E-05  0.130E-01    3.48       1.0  T
   3    -23.1257308  0.944940E-06  0.128E-02    3.47       2.0  T
   4    -23.1257325 -0.172509E-05  0.341E-03    3.48       7.6  T
   5    -23.1257326 -0.459541E-07  0.189E-03    3.48      13.7  T
   6    -23.1257326 -0.619631E-08  0.809E-04    3.48      31.9  T
   7    -23.1257326 -0.110353E-08  0.231E-04    3.48     112.0  T
     SCC iter.                  ...        0 min,  0.100 sec
     gradient                   ...        0 min,  0.002 sec
 * total energy  :   -22.8738162 Eh     change       -0.1451215E-03 Eh
   gradient norm :     0.0045586 Eh/α   predicted    -0.1730506E-03 (  19.25%)
   displ. norm   :     0.0884971 α      lambda       -0.5096750E-04
   maximum displ.:     0.0665133 α      in ANC's #1, #5, #26, ...

........................................................................
.............................. CYCLE   19 ..............................
........................................................................

 iter      E             dE          RMSdq      gap      omega  full diag
   1    -23.1271852 -0.231272E+02  0.915E-02    3.48       0.0  T
   2    -23.1271857 -0.498462E-06  0.541E-02    3.48       1.0  T
   3    -23.1271857  0.698771E-07  0.430E-03    3.48       6.0  T
   4    -23.1271858 -0.170272E-06  0.135E-03    3.48      19.1  T
   5    -23.1271858 -0.551482E-08  0.682E-04    3.48      37.9  T
   6    -23.1271858 -0.596152E-09  0.239E-04    3.48     108.0  T
     SCC iter.                  ...        0 min,  0.100 sec
     gradient                   ...        0 min,  0.001 sec
 * total energy  :   -22.8738399 Eh     change       -0.2370693E-04 Eh
   gradient norm :     0.0021799 Eh/α   predicted    -0.2568251E-04 (   8.33%)
   displ. norm   :     0.0221309 α      lambda       -0.1569543E-04
   maximum displ.:     0.0131174 α      in ANC's #26, #3, #5, ...

........................................................................
.............................. CYCLE   20 ..............................
........................................................................

 iter      E             dE          RMSdq      gap      omega  full diag
   1    -23.1272269 -0.231272E+02  0.333E-02    3.48       0.0  T
   2    -23.1272270 -0.156477E-06  0.198E-02    3.48       1.3  T
   3    -23.1272270  0.111419E-08  0.158E-03    3.48      16.3  T
   4    -23.1272270 -0.206796E-07  0.513E-04    3.48      50.4  T
   5    -23.1272270 -0.757165E-09  0.209E-04    3.48     123.4  T
     SCC iter.                  ...        0 min,  0.107 sec
     gradient                   ...        0 min,  0.001 sec
 * total energy  :   -22.8738529 Eh     change       -0.1304474E-04 Eh
   gradient norm :     0.0024324 Eh/α   predicted    -0.7852926E-05 ( -39.80%)
   displ. norm   :     0.1053820 α      lambda       -0.5407450E-04
   maximum displ.:     0.0624011 α      in ANC's #26, #5, #3, ...
 * RMSD in coord.:     0.8451803 α      energy gain  -0.1089696E-01 Eh

generating ANC from model Hessian ...
Using Lindh-Hessian (1995)
 Shifting diagonal of input Hessian by   6.460365979918148E-003
 Lowest  eigenvalues of input Hessian
    0.000000    0.000000    0.000000    0.000000    0.000000    0.000000
    0.010000    0.011293    0.014607    0.018591    0.019119    0.027552
    0.048856    0.052882    0.057249    0.060310    0.071557    0.074759
 Highest eigenvalues
    1.217751    1.240593    1.335736    1.474753    1.976098    2.230771
 

........................................................................
.............................. CYCLE   21 ..............................
........................................................................

 iter      E             dE          RMSdq      gap      omega  full diag
   1    -23.1268955 -0.231269E+02  0.170E-01    3.49       0.0  T
   2    -23.1268965 -0.102577E-05  0.101E-01    3.49       1.0  T
   3    -23.1268966 -0.153172E-06  0.430E-03    3.49       6.0  T
   4    -23.1268968 -0.138582E-06  0.205E-03    3.49      12.6  T
   5    -23.1268968 -0.459354E-08  0.852E-04    3.49      30.3  T
   6    -23.1268968 -0.997844E-09  0.340E-04    3.49      76.0  T
     SCC iter.                  ...        0 min,  0.100 sec
     gradient                   ...        0 min,  0.001 sec
 * total energy  :   -22.8738866 Eh     change       -0.3364786E-04 Eh
   gradient norm :     0.0040645 Eh/α   predicted     0.0000000E+00 (-100.00%)
   displ. norm   :     0.0428433 α      lambda       -0.3643313E-04
   maximum displ.:     0.0382153 α      in ANC's #1, #3, #15, ...

........................................................................
.............................. CYCLE   22 ..............................
........................................................................

 iter      E             dE          RMSdq      gap      omega  full diag
   1    -23.1269400 -0.231269E+02  0.322E-02    3.50       0.0  T
   2    -23.1269403 -0.328729E-06  0.192E-02    3.49       1.3  T
   3    -23.1269403  0.164845E-07  0.265E-03    3.49       9.7  T
   4    -23.1269404 -0.449679E-07  0.601E-04    3.49      43.0  T
   5    -23.1269404 -0.114094E-08  0.249E-04    3.49     103.9  T
     SCC iter.                  ...        0 min,  0.102 sec
     gradient                   ...        0 min,  0.002 sec
 * total energy  :   -22.8739115 Eh     change       -0.2496845E-04 Eh
   gradient norm :     0.0017612 Eh/α   predicted    -0.1825064E-04 ( -26.91%)
   displ. norm   :     0.0968663 α      lambda       -0.3599928E-04
   maximum displ.:     0.0799494 α      in ANC's #1, #3, #5, ...

........................................................................
.............................. CYCLE   23 ..............................
........................................................................

 iter      E             dE          RMSdq      gap      omega  full diag
   1    -23.1267724 -0.231268E+02  0.755E-02    3.51       0.0  T
   2    -23.1267736 -0.122297E-05  0.441E-02    3.50       1.0  T
   3    -23.1267736 -0.113479E-07  0.465E-03    3.50       5.6  T
   4    -23.1267737 -0.118082E-06  0.135E-03    3.50      19.1  T
   5    -23.1267737 -0.658863E-08  0.693E-04    3.50      37.2  T
   6    -23.1267737 -0.569791E-09  0.368E-04    3.50      70.1  T
     SCC iter.                  ...        0 min,  0.100 sec
     gradient                   ...        0 min,  0.001 sec
 * total energy  :   -22.8739405 Eh     change       -0.2890862E-04 Eh
   gradient norm :     0.0034940 Eh/α   predicted    -0.1807286E-04 ( -37.48%)
   displ. norm   :     0.0470510 α      lambda       -0.2216381E-04
   maximum displ.:     0.0397528 α      in ANC's #1, #3, #6, ...

........................................................................
.............................. CYCLE   24 ..............................
........................................................................

 iter      E             dE          RMSdq      gap      omega  full diag
   1    -23.1266618 -0.231267E+02  0.313E-02    3.50       0.0  T
   2    -23.1266618 -0.339213E-07  0.185E-02    3.50       1.4  T
   3    -23.1266618  0.700034E-09  0.124E-03    3.50      20.8  T
   4    -23.1266618 -0.139374E-07  0.468E-04    3.50      55.2  T
   5    -23.1266618 -0.216506E-09  0.175E-04    3.50     147.7  T
     SCC iter.                  ...        0 min,  0.195 sec
     gradient                   ...        0 min,  0.019 sec
 * total energy  :   -22.8739592 Eh     change       -0.1877595E-04 Eh
   gradient norm :     0.0026413 Eh/α   predicted    -0.1110661E-04 ( -40.85%)
   displ. norm   :     0.0761423 α      lambda       -0.3099578E-04
   maximum displ.:     0.0626278 α      in ANC's #1, #3, #4, ...

........................................................................
.............................. CYCLE   25 ..............................
........................................................................

 iter      E             dE          RMSdq      gap      omega  full diag
   1    -23.1267272 -0.231267E+02  0.517E-02    3.50       0.0  T
   2    -23.1267274 -0.187899E-06  0.308E-02    3.50       1.0  T
   3    -23.1267274  0.866190E-08  0.235E-03    3.50      11.0  T
   4    -23.1267274 -0.526439E-07  0.835E-04    3.50      30.9  T
   5    -23.1267274 -0.969600E-09  0.388E-04    3.50      66.5  T
     SCC iter.                  ...        0 min,  0.104 sec
     gradient                   ...        0 min,  0.001 sec
 * total energy  :   -22.8739841 Eh     change       -0.2483586E-04 Eh
   gradient norm :     0.0013299 Eh/α   predicted    -0.1558852E-04 ( -37.23%)
   displ. norm   :     0.1328019 α      lambda       -0.2575771E-04
   maximum displ.:     0.1114327 α      in ANC's #1, #3, #4, ...

........................................................................
.............................. CYCLE   26 ..............................
........................................................................

 iter      E             dE          RMSdq      gap      omega  full diag
   1    -23.1267746 -0.231268E+02  0.838E-02    3.50       0.0  T
   2    -23.1267752 -0.530961E-06  0.500E-02    3.50       1.0  T
   3    -23.1267751  0.411184E-07  0.402E-03    3.50       6.4  T
   4    -23.1267753 -0.165555E-06  0.143E-03    3.50      18.0  T
   5    -23.1267753 -0.217562E-08  0.700E-04    3.50      36.9  T
   6    -23.1267753 -0.128086E-08  0.266E-04    3.50      97.1  T
     SCC iter.                  ...        0 min,  0.102 sec
     gradient                   ...        0 min,  0.002 sec
 * total energy  :   -22.8740112 Eh     change       -0.2716383E-04 Eh
   gradient norm :     0.0022734 Eh/α   predicted    -0.1297985E-04 ( -52.22%)
   displ. norm   :     0.0484557 α      lambda       -0.1211454E-04
   maximum displ.:     0.0437190 α      in ANC's #1, #6, #4, ...

........................................................................
.............................. CYCLE   27 ..............................
........................................................................

 iter      E             dE          RMSdq      gap      omega  full diag
   1    -23.1269696 -0.231270E+02  0.227E-02    3.50       0.0  T
   2    -23.1269697 -0.327102E-07  0.136E-02    3.50       1.9  T
   3    -23.1269697  0.831011E-08  0.137E-03    3.50      18.9  T
   4    -23.1269697 -0.206630E-07  0.477E-04    3.50      54.1  T
   5    -23.1269697 -0.133163E-09  0.228E-04    3.50     113.0  T
     SCC iter.                  ...        0 min,  0.098 sec
     gradient                   ...        0 min,  0.001 sec
 * total energy  :   -22.8740218 Eh     change       -0.1056463E-04 Eh
   gradient norm :     0.0014440 Eh/α   predicted    -0.6071232E-05 ( -42.53%)
   displ. norm   :     0.0648371 α      lambda       -0.1044781E-04
   maximum displ.:     0.0606147 α      in ANC's #1, #6, #4, ...

........................................................................
.............................. CYCLE   28 ..............................
........................................................................

 iter      E             dE          RMSdq      gap      omega  full diag
   1    -23.1272130 -0.231272E+02  0.247E-02    3.51       0.0  T
   2    -23.1272130 -0.580229E-07  0.148E-02    3.51       1.7  T
   3    -23.1272130  0.929625E-08  0.170E-03    3.51      15.2  T
   4    -23.1272131 -0.282884E-07  0.615E-04    3.51      42.0  T
   5    -23.1272131 -0.445414E-09  0.289E-04    3.51      89.2  T
     SCC iter.                  ...        0 min,  0.108 sec
     gradient                   ...        0 min,  0.001 sec
 * total energy  :   -22.8740337 Eh     change       -0.1187109E-04 Eh
   gradient norm :     0.0005863 Eh/α   predicted    -0.5234123E-05 ( -55.91%)
   displ. norm   :     0.0408850 α      lambda       -0.4856114E-05
   maximum displ.:     0.0385294 α      in ANC's #1, #3, #2, ...

........................................................................
.............................. CYCLE   29 ..............................
........................................................................

 iter      E             dE          RMSdq      gap      omega  full diag
   1    -23.1271907 -0.231272E+02  0.146E-02    3.51       0.0  T
   2    -23.1271907 -0.168593E-07  0.871E-03    3.51       3.0  T
   3    -23.1271907 -0.929315E-09  0.744E-04    3.51      34.7  T
   4    -23.1271907 -0.402744E-08  0.331E-04    3.51      78.0  T
     SCC iter.                  ...        0 min,  0.100 sec
     gradient                   ...        0 min,  0.002 sec
 * total energy  :   -22.8740403 Eh     change       -0.6679415E-05 Eh
   gradient norm :     0.0008646 Eh/α   predicted    -0.2429405E-05 ( -63.63%)
   displ. norm   :     0.0393821 α      lambda       -0.5089812E-05
   maximum displ.:     0.0333324 α      in ANC's #1, #3, #2, ...

........................................................................
.............................. CYCLE   30 ..............................
........................................................................

 iter      E             dE          RMSdq      gap      omega  full diag
   1    -23.1272093 -0.231272E+02  0.232E-02    3.51       0.0  T
   2    -23.1272093 -0.156441E-07  0.137E-02    3.51       1.9  T
   3    -23.1272093 -0.413474E-08  0.685E-04    3.51      37.7  T
   4    -23.1272093 -0.239660E-08  0.365E-04    3.51      70.7  T
     SCC iter.                  ...        0 min,  0.098 sec
     gradient                   ...        0 min,  0.001 sec
 * total energy  :   -22.8740473 Eh     change       -0.7007061E-05 Eh
   gradient norm :     0.0008435 Eh/α   predicted    -0.2546026E-05 ( -63.66%)
   displ. norm   :     0.0555244 α      lambda       -0.6405649E-05
   maximum displ.:     0.0443867 α      in ANC's #1, #3, #2, ...

........................................................................
.............................. CYCLE   31 ..............................
........................................................................

 iter      E             dE          RMSdq      gap      omega  full diag
   1    -23.1270664 -0.231271E+02  0.404E-02    3.51       0.0  T
   2    -23.1270665 -0.399440E-07  0.239E-02    3.51       1.1  T
   3    -23.1270665 -0.141815E-07  0.977E-04    3.51      26.4  T
   4    -23.1270665 -0.302061E-08  0.559E-04    3.51      46.2  T
     SCC iter.                  ...        0 min,  0.102 sec
     gradient                   ...        0 min,  0.001 sec
 * total energy  :   -22.8740556 Eh     change       -0.8216379E-05 Eh
   gradient norm :     0.0003634 Eh/α   predicted    -0.3207617E-05 ( -60.96%)
   displ. norm   :     0.0602956 α      lambda       -0.5046539E-05
   maximum displ.:     0.0479902 α      in ANC's #1, #3, #2, ...

........................................................................
.............................. CYCLE   32 ..............................
........................................................................

 iter      E             dE          RMSdq      gap      omega  full diag
   1    -23.1270625 -0.231271E+02  0.470E-02    3.50       0.0  T
   2    -23.1270625 -0.473061E-07  0.278E-02    3.50       1.0  T
   3    -23.1270625 -0.160940E-07  0.123E-03    3.50      21.0  T
   4    -23.1270625 -0.753779E-08  0.681E-04    3.50      37.9  T
   5    -23.1270625 -0.689575E-09  0.218E-04    3.50     118.5  T
     SCC iter.                  ...        0 min,  0.101 sec
     gradient                   ...        0 min,  0.003 sec
 * total energy  :   -22.8740617 Eh     change       -0.6116998E-05 Eh
   gradient norm :     0.0001878 Eh/α   predicted    -0.2526400E-05 ( -58.70%)
   displ. norm   :     0.0417372 α      lambda       -0.2560148E-05
   maximum displ.:     0.0356652 α      in ANC's #1, #3, #2, ...

........................................................................
.............................. CYCLE   33 ..............................
........................................................................

 iter      E             dE          RMSdq      gap      omega  full diag
   1    -23.1270022 -0.231270E+02  0.317E-02    3.50       0.0  T
   2    -23.1270023 -0.255465E-07  0.187E-02    3.50       1.4  T
   3    -23.1270023 -0.814100E-08  0.778E-04    3.50      33.2  T
   4    -23.1270023 -0.218308E-08  0.436E-04    3.50      59.2  T
     SCC iter.                  ...        0 min,  0.109 sec
     gradient                   ...        0 min,  0.001 sec
 * total energy  :   -22.8740649 Eh     change       -0.3247518E-05 Eh
   gradient norm :     0.0003456 Eh/α   predicted    -0.1281021E-05 ( -60.55%)
   displ. norm   :     0.0264334 α      lambda       -0.1567859E-05
   maximum displ.:     0.0239163 α      in ANC's #1, #2, #5, ...

........................................................................
.............................. CYCLE   34 ..............................
........................................................................

 iter      E             dE          RMSdq      gap      omega  full diag
   1    -23.1270552 -0.231271E+02  0.170E-02    3.50       0.0  T
   2    -23.1270553 -0.789280E-08  0.101E-02    3.50       2.6  T
   3    -23.1270553 -0.674138E-09  0.603E-04    3.50      42.8  T
   4    -23.1270553 -0.293083E-08  0.274E-04    3.50      94.4  T
     SCC iter.                  ...        0 min,  0.100 sec
     gradient                   ...        0 min,  0.003 sec
 * total energy  :   -22.8740671 Eh     change       -0.2148957E-05 Eh
   gradient norm :     0.0002283 Eh/α   predicted    -0.7835136E-06 ( -63.54%)
   displ. norm   :     0.0249253 α      lambda       -0.1546643E-05
   maximum displ.:     0.0223762 α      in ANC's #1, #5, #2, ...

........................................................................
.............................. CYCLE   35 ..............................
........................................................................

 iter      E             dE          RMSdq      gap      omega  full diag
   1    -23.1270642 -0.231271E+02  0.118E-02    3.50       0.0  T
   2    -23.1270642 -0.433159E-08  0.699E-03    3.50       3.7  T
   3    -23.1270642 -0.809166E-09  0.388E-04    3.50      66.5  T
   4    -23.1270642 -0.922302E-09  0.194E-04    3.50     133.0  T
     SCC iter.                  ...        0 min,  0.104 sec
     gradient                   ...        0 min,  0.001 sec
 * total energy  :   -22.8740692 Eh     change       -0.2103811E-05 Eh
   gradient norm :     0.0001937 Eh/α   predicted    -0.7744488E-06 ( -63.19%)
   displ. norm   :     0.0278763 α      lambda       -0.1530081E-05
   maximum displ.:     0.0243251 α      in ANC's #1, #3, #5, ...

........................................................................
.............................. CYCLE   36 ..............................
........................................................................

 iter      E             dE          RMSdq      gap      omega  full diag
   1    -23.1270802 -0.231271E+02  0.104E-02    3.50       0.0  T
   2    -23.1270802 -0.434155E-08  0.621E-03    3.50       4.2  T
   3    -23.1270802 -0.338336E-09  0.420E-04    3.50      61.5  T
   4    -23.1270802 -0.133064E-08  0.188E-04    3.50     137.4  T
     SCC iter.                  ...        0 min,  0.099 sec
     gradient                   ...        0 min,  0.001 sec
 * total energy  :   -22.8740712 Eh     change       -0.1977973E-05 Eh
   gradient norm :     0.0001033 Eh/α   predicted    -0.7639704E-06 ( -61.38%)
   displ. norm   :     0.0262840 α      lambda       -0.1088044E-05
   maximum displ.:     0.0231319 α      in ANC's #1, #3, #5, ...

........................................................................
.............................. CYCLE   37 ..............................
........................................................................

 iter      E             dE          RMSdq      gap      omega  full diag
   1    -23.1270884 -0.231271E+02  0.945E-03    3.50       0.0  T
   2    -23.1270884 -0.293589E-08  0.564E-03    3.50       4.6  T
   3    -23.1270884 -0.743555E-09  0.331E-04    3.50      77.9  T
   4    -23.1270884 -0.636383E-09  0.171E-04    3.50     150.9  T
     SCC iter.                  ...        0 min,  0.101 sec
     gradient                   ...        0 min,  0.002 sec
 * total energy  :   -22.8740725 Eh     change       -0.1375519E-05 Eh
   gradient norm :     0.0000866 Eh/α   predicted    -0.5459379E-06 ( -60.31%)
   displ. norm   :     0.0185566 α      lambda       -0.5815699E-06
   maximum displ.:     0.0170911 α      in ANC's #1, #3, #5, ...

........................................................................
.............................. CYCLE   38 ..............................
........................................................................

 iter      E             dE          RMSdq      gap      omega  full diag
   1    -23.1271012 -0.231271E+02  0.657E-03    3.50       0.0  T
   2    -23.1271012 -0.206120E-08  0.392E-03    3.50       6.6  T
   3    -23.1271012 -0.114529E-09  0.282E-04    3.50      91.5  T
   4    -23.1271012 -0.633886E-09  0.125E-04    3.50     206.3  T
     SCC iter.                  ...        0 min,  0.107 sec
     gradient                   ...        0 min,  0.001 sec
 * total energy  :   -22.8740733 Eh     change       -0.7559995E-06 Eh
   gradient norm :     0.0000689 Eh/α   predicted    -0.2898956E-06 ( -61.65%)
   displ. norm   :     0.0119662 α      lambda       -0.3250863E-06
   maximum displ.:     0.0114892 α      in ANC's #1, #4, #3, ...

........................................................................
.............................. CYCLE   39 ..............................
........................................................................

 iter      E             dE          RMSdq      gap      omega  full diag
   1    -23.1271042 -0.231271E+02  0.408E-03    3.50       0.0  T
   2    -23.1271042 -0.777248E-09  0.244E-03    3.50      10.6  T
   3    -23.1271042 -0.917595E-10  0.183E-04    3.50     141.3  T
   4    -23.1271042 -0.252829E-09  0.866E-05    3.50     298.0  T
     SCC iter.                  ...        0 min,  0.104 sec
     gradient                   ...        0 min,  0.002 sec
 * total energy  :   -22.8740737 Eh     change       -0.4501531E-06 Eh
   gradient norm :     0.0000671 Eh/α   predicted    -0.1628991E-06 ( -63.81%)
   displ. norm   :     0.0092384 α      lambda       -0.2510904E-06
   maximum displ.:     0.0089274 α      in ANC's #1, #2, #5, ...

........................................................................
.............................. CYCLE   40 ..............................
........................................................................

 iter      E             dE          RMSdq      gap      omega  full diag
   1    -23.1271089 -0.231271E+02  0.310E-03    3.50       0.0  T
   2    -23.1271089 -0.663544E-09  0.185E-03    3.50      14.0  T
   3    -23.1271089  0.400995E-10  0.171E-04    3.50     151.4  T
   4    -23.1271089 -0.269054E-09  0.691E-05    3.50     373.8  T
     SCC iter.                  ...        0 min,  0.104 sec
     gradient                   ...        0 min,  0.001 sec
 * total energy  :   -22.8740741 Eh     change       -0.3527458E-06 Eh
   gradient norm :     0.0000644 Eh/α   predicted    -0.1244536E-06 ( -64.72%)
   displ. norm   :     0.0093629 α      lambda       -0.2399945E-06
   maximum displ.:     0.0086251 α      in ANC's #1, #3, #5, ...

........................................................................
.............................. CYCLE   41 ..............................
........................................................................

 iter      E             dE          RMSdq      gap      omega  full diag
   1    -23.1271045 -0.231271E+02  0.292E-03    3.50       0.0  T
   2    -23.1271045 -0.748898E-09  0.175E-03    3.50      14.8  T
   3    -23.1271045  0.450733E-10  0.179E-04    3.50     144.4  T
   4    -23.1271045 -0.292264E-09  0.723E-05    3.50     357.3  T
     SCC iter.                  ...        0 min,  0.100 sec
     gradient                   ...        0 min,  0.001 sec
 * total energy  :   -22.8740744 Eh     change       -0.3346722E-06 Eh
   gradient norm :     0.0000517 Eh/α   predicted    -0.1201371E-06 ( -64.10%)
   displ. norm   :     0.0107824 α      lambda       -0.2416384E-06
   maximum displ.:     0.0095701 α      in ANC's #1, #3, #5, ...

........................................................................
.............................. CYCLE   42 ..............................
........................................................................

 iter      E             dE          RMSdq      gap      omega  full diag
   1    -23.1271035 -0.231271E+02  0.351E-03    3.50       0.0  T
   2    -23.1271035 -0.104540E-08  0.210E-03    3.50      12.3  T
   3    -23.1271035  0.135703E-09  0.223E-04    3.50     115.8  T
   4    -23.1271035 -0.491191E-09  0.849E-05    3.50     304.1  T
     SCC iter.                  ...        0 min,  0.147 sec
     gradient                   ...        0 min,  0.014 sec
 * total energy  :   -22.8740748 Eh     change       -0.3206791E-06 Eh
   gradient norm :     0.0000420 Eh/α   predicted    -0.1199498E-06 ( -62.60%)
   displ. norm   :     0.0101244 α      lambda       -0.1790729E-06
   maximum displ.:     0.0090488 α      in ANC's #1, #3, #5, ...
 * RMSD in coord.:     0.2138946 α      energy gain  -0.2218242E-03 Eh

generating ANC from model Hessian ...
Using Lindh-Hessian (1995)
 Shifting diagonal of input Hessian by   6.583245737398453E-003
 Lowest  eigenvalues of input Hessian
    0.000000    0.000000    0.000000    0.000000    0.000000    0.000000
    0.010000    0.011440    0.014665    0.018396    0.019374    0.028422
    0.048393    0.053064    0.057309    0.060370    0.071379    0.075083
 Highest eigenvalues
    1.217737    1.242306    1.336805    1.473978    1.974811    2.235141
 

........................................................................
.............................. CYCLE   43 ..............................
........................................................................

 iter      E             dE          RMSdq      gap      omega  full diag
   1    -23.1270996 -0.231271E+02  0.323E-03    3.50       0.0  T
   2    -23.1270996 -0.940531E-09  0.194E-03    3.50      13.3  T
   3    -23.1270996  0.619451E-10  0.202E-04    3.50     127.9  T
   4    -23.1270996 -0.372122E-09  0.811E-05    3.50     318.2  T
     SCC iter.                  ...        0 min,  0.141 sec
     gradient                   ...        0 min,  0.001 sec
 * total energy  :   -22.8740750 Eh     change       -0.2362809E-06 Eh
   gradient norm :     0.0000308 Eh/α   predicted     0.0000000E+00 (-100.00%)
   displ. norm   :     0.0033875 α      lambda       -0.5608788E-07
   maximum displ.:     0.0033366 α      in ANC's #1, #2, #5, ...

........................................................................
.............................. CYCLE   44 ..............................
........................................................................

 iter      E             dE          RMSdq      gap      omega  full diag
   1    -23.1271006 -0.231271E+02  0.129E-03    3.50       0.0  T
   2    -23.1271006 -0.109878E-09  0.770E-04    3.50      33.5  T
   3    -23.1271006  0.217639E-10  0.733E-05    3.50     352.3  T
     SCC iter.                  ...        0 min,  0.110 sec
     gradient                   ...        0 min,  0.002 sec
 * total energy  :   -22.8740751 Eh     change       -0.7309214E-07 Eh
   gradient norm :     0.0000258 Eh/α   predicted    -0.2657436E-07 ( -63.64%)
   displ. norm   :     0.0036634 α      lambda       -0.4734953E-07
   maximum displ.:     0.0033784 α      in ANC's #1, #2, #6, ...

   *** GEOMETRY OPTIMIZATION CONVERGED AFTER 44 ITERATIONS ***

------------------------------------------------------------------------
 total energy gain   :        -0.0111191 Eh       -6.9773 kcal/mol
 total RMSD          :         0.7347469 a0        0.3888 Å
 total power (kW/mol):        -0.6634812 (step)   -5.4870 (real)
------------------------------------------------------------------------

 ANCopt (total)                0 d,  0 h,  0 min,  5.321 sec
 optimizer setup                ...        0 min,  0.000 sec (  0.002%)
 model hessian                  ...        0 min,  0.013 sec (  0.238%)
 ANC generation                 ...        0 min,  0.001 sec (  0.019%)
 coordinate transformation      ...        0 min,  0.001 sec (  0.013%)
 single point calculation       ...        0 min,  5.289 sec ( 99.407%)
 optimization log               ...        0 min,  0.004 sec (  0.074%)
 hessian update                 ...        0 min,  0.005 sec (  0.090%)
 rational function              ...        0 min,  0.006 sec (  0.107%)

================
 final structure:
================
15
 xtb: 6.7.0 (08769fc)
C            2.61845735608138       -0.50145407510658        0.17148570212168
C            1.16485019668386       -0.65130254696868       -0.27312739233710
C            0.49221144345526        0.69757619200376       -0.33875460721710
O           -0.08274737877538        1.22776075909070        0.80894655495361
C           -0.98103392715515        0.88189453848558       -0.21404314754388
C           -1.89512731622191       -0.26994381128909       -0.01313185214379
O           -1.74491867730322       -1.17174031485717        0.76564413601176
H            3.17624339725572        0.10805532577842       -0.53657147795988
H            3.09069988759541       -1.47803832346869        0.23651576421598
H            2.66251219428513       -0.02677400231193        1.14880187023958
H            0.62843936123267       -1.28670330207398        0.43268918781433
H            1.12194932425234       -1.11171990269999       -1.26347168035022
H            1.00096131931397        1.42969441479853       -0.96785233936923
H           -1.42415833746082        1.72558260056619       -0.73965064898449
H           -2.77647273513929       -0.22628085424703       -0.68337535835119
 
 Bond Distances (Angstroems)
 ---------------------------
C1-C2=1.5275         C1-H8=1.0881         C1-H9=1.0867         C1-H10=1.0874        C2-C1=1.5275         C2-C3=1.5087         
C2-H11=1.0907        C2-H12=1.0930        C3-C2=1.5087         C3-O4=1.3888         C3-C5=1.4900         C3-H13=1.0911        
O4-C3=1.3888         O4-C5=1.4047         C5-C3=1.4900         C5-O4=1.4047         C5-C6=1.4841         C5-H14=1.0883        
C6-C5=1.4841         C6-O7=1.2010         C6-H15=1.1081        O7-C6=1.2010         H8-C1=1.0881         H9-C1=1.0867         
H10-C1=1.0874        H11-C2=1.0907        H12-C2=1.0930        H13-C3=1.0911        H14-C5=1.0883        H15-C6=1.1081        
 C  H  Rav=1.0917 sigma=0.0065  Rmin=1.0867  Rmax=1.1081     8
 C  C  Rav=1.5026 sigma=0.0170  Rmin=1.4841  Rmax=1.5275     4
 O  C  Rav=1.3315 sigma=0.0925  Rmin=1.2010  Rmax=1.4047     3
 
 selected bond angles (degree)
 --------------------
H8-C1-C2=110.69                H9-C1-C2=110.05                H9-C1-H8=108.64                H10-C1-C2=110.06               
H10-C1-H8=108.64               H10-C1-H9=108.72               C3-C2-C1=110.44                H11-C2-C1=109.68               
H11-C2-C3=109.25               H12-C2-C1=110.02               H12-C2-C3=108.65               H12-C2-H11=108.76              
O4-C3-C2=119.34                C5-C3-C2=123.22                C5-C3-O4= 58.28                H13-C3-C2=114.65               
H13-C3-O4=114.41               H13-C3-C5=115.23               C5-O4-C3= 64.46                O4-C5-C3= 57.25                
C6-C5-C3=121.62                C6-C5-O4=119.10                H14-C5-C3=117.26               H14-C5-O4=114.91               
H14-C5-C6=114.60               O7-C6-C5=126.41                H15-C6-C5=112.17               H15-C6-O7=121.42               
 
 selected dihedral angles (degree)
 ---------------------------------
C3-C2-C1-H8=298.93            C3-C2-C1-H9=178.83            C3-C2-C1-H10= 59.03           H11-C2-C1-H8=178.46           
H11-C2-C1-H9= 58.36           H11-C2-C1-H10=298.57          H12-C2-C1-H8= 58.86           H12-C2-C1-H9=298.76           
H12-C2-C1-H10=178.96          O4-C3-C2-C1=273.87            O4-C3-C2-H11= 34.59           O4-C3-C2-H12=153.11           
C5-C3-C2-C1=204.53            C5-C3-C2-H11=325.26           C5-C3-C2-H12= 83.77           H13-C3-C2-C1= 55.09           
H13-C3-C2-H11=175.81          H13-C3-C2-H12=294.33          C5-O4-C3-C2=246.96            C5-O4-C3-H13=105.65           
O4-C5-C3-C2=106.48            O4-C5-C3-H13=255.76           C6-C5-C3-C2=  0.04            C6-C5-C3-O4=253.55            
C6-C5-C3-H13=149.32           H14-C5-C3-C2=209.90           H14-C5-C3-O4=103.41           H14-C5-C3-H13=359.18          
C6-C5-O4-C3=110.82            H14-C5-O4-C3=252.43           O7-C6-C5-C3= 46.30            O7-C6-C5-O4=338.90            
O7-C6-C5-H14=197.17           H15-C6-C5-C3=226.50           H15-C6-C5-O4=159.10           H15-C6-C5-H14= 17.37          
           -------------------------------------------------
          |                Final Singlepoint                |
           -------------------------------------------------

          ...................................................
          :                      SETUP                      :
          :.................................................:
          :  # basis functions                  36          :
          :  # atomic orbitals                  36          :
          :  # shells                           22          :
          :  # electrons                        40          :
          :  max. iterations                  4000          :
          :  Hamiltonian                  GFN2-xTB          :
          :  restarted?                      false          :
          :  GBSA solvation                   true          :
          :  PC potential                    false          :
          :  electronic temp.          300.0000000     K    :
          :  accuracy                    1.0000000          :
          :  -> integral cutoff          0.2500000E+02      :
          :  -> integral neglect         0.1000000E-07      :
          :  -> SCF convergence          0.1000000E-05 Eh   :
          :  -> wf. convergence          0.1000000E-03 e    :
          :  Broyden damping             0.4000000          :
          :  net charge                          0          :
          :  unpaired electrons                  0          :
          ...................................................

 iter      E             dE          RMSdq      gap      omega  full diag
   1    -23.1271006 -0.231271E+02  0.254E-05    3.50       0.0  T
   2    -23.1271006 -0.589750E-12  0.155E-05    3.50    1669.2  T
   3    -23.1271006  0.461853E-13  0.667E-06    3.50    3872.2  T

   *** convergence criteria satisfied after 3 iterations ***

         #    Occupation            Energy/Eh            Energy/eV
      -------------------------------------------------------------
         1        2.0000           -0.7422657             -20.1981
       ...           ...                  ...                  ...
        14        2.0000           -0.4984787             -13.5643
        15        2.0000           -0.4950380             -13.4707
        16        2.0000           -0.4684658             -12.7476
        17        2.0000           -0.4580702             -12.4647
        18        2.0000           -0.4464554             -12.1487
        19        2.0000           -0.4383062             -11.9269
        20        2.0000           -0.4188954             -11.3987 (HOMO)
        21                         -0.2901781              -7.8961 (LUMO)
        22                         -0.0917383              -2.4963
        23                          0.0460872               1.2541
        24                          0.0658318               1.7914
        25                          0.0956049               2.6015
       ...                                ...                  ...
        36                          0.6076878              16.5360
      -------------------------------------------------------------
                  HL-Gap            0.1287173 Eh            3.5026 eV
             Fermi-level           -0.3545368 Eh           -9.6474 eV

 SCC (total)                   0 d,  0 h,  0 min,  0.113 sec
 SCC setup                      ...        0 min,  0.004 sec (  3.234%)
 Dispersion                     ...        0 min,  0.000 sec (  0.140%)
 classical contributions        ...        0 min,  0.001 sec (  1.289%)
 integral evaluation            ...        0 min,  0.001 sec (  0.667%)
 iterations                     ...        0 min,  0.105 sec ( 92.681%)
 molecular gradient             ...        0 min,  0.002 sec (  1.856%)
 printout                       ...        0 min,  0.000 sec (  0.095%)

         :::::::::::::::::::::::::::::::::::::::::::::::::::::
         ::                     SUMMARY                     ::
         :::::::::::::::::::::::::::::::::::::::::::::::::::::
         :: total energy             -22.874075059824 Eh    ::
         :: total w/o Gsasa/hb       -22.865935394183 Eh    ::
         :: gradient norm              0.000029807452 Eh/a0 ::
         :: HOMO-LUMO gap              3.502575143699 eV    ::
         ::.................................................::
         :: SCC energy               -23.127087470615 Eh    ::
         :: -> isotropic ES            0.041261498390 Eh    ::
         :: -> anisotropic ES          0.003278244260 Eh    ::
         :: -> anisotropic XC          0.003826009973 Eh    ::
         :: -> dispersion             -0.008611993697 Eh    ::
         :: -> Gsolv                  -0.010654338508 Eh    ::
         ::    -> Gelec               -0.002514672868 Eh    ::
         ::    -> Gsasa               -0.010347808779 Eh    ::
         ::    -> Ghb                  0.000000000000 Eh    ::
         ::    -> Gshift               0.002208143139 Eh    ::
         :: repulsion energy           0.253012410792 Eh    ::
         :: add. restraining           0.000000000000 Eh    ::
         :: total charge               0.000000000000 e     ::
         :::::::::::::::::::::::::::::::::::::::::::::::::::::

           -------------------------------------------------
          |                Property Printout                |
           -------------------------------------------------

    * Orbital Energies and Occupations

         #    Occupation            Energy/Eh            Energy/eV
      -------------------------------------------------------------
         1        2.0000           -0.7422657             -20.1981
       ...           ...                  ...                  ...
         8        2.0000           -0.5777006             -15.7200
         9        2.0000           -0.5647603             -15.3679
        10        2.0000           -0.5635242             -15.3343
        11        2.0000           -0.5544724             -15.0880
        12        2.0000           -0.5351923             -14.5633
        13        2.0000           -0.5135293             -13.9738
        14        2.0000           -0.4984787             -13.5643
        15        2.0000           -0.4950380             -13.4707
        16        2.0000           -0.4684658             -12.7476
        17        2.0000           -0.4580702             -12.4647
        18        2.0000           -0.4464554             -12.1487
        19        2.0000           -0.4383062             -11.9269
        20        2.0000           -0.4188954             -11.3987 (HOMO)
        21                         -0.2901781              -7.8961 (LUMO)
        22                         -0.0917383              -2.4963
        23                          0.0460872               1.2541
        24                          0.0658318               1.7914
        25                          0.0956049               2.6015
        26                          0.1186529               3.2287
        27                          0.1306300               3.5546
        28                          0.1409867               3.8364
        29                          0.1672816               4.5520
        30                          0.1763329               4.7983
        31                          0.2006613               5.4603
       ...                                ...                  ...
        36                          0.6076878              16.5360
      -------------------------------------------------------------
                  HL-Gap            0.1287173 Eh            3.5026 eV
             Fermi-level           -0.3545368 Eh           -9.6474 eV

     #   Z          covCN         q      C6AA      α(0)
     1   6 C        3.754    -0.106    22.584     6.776
     2   6 C        3.800    -0.068    21.803     6.648
     3   6 C        3.735     0.124    18.642     6.162
     4   8 O        1.702    -0.302    19.029     5.890
     5   6 C        3.731     0.074    19.427     6.292
     6   6 C        2.756     0.207    23.608     7.957
     7   8 O        0.856    -0.317    20.095     6.010
     8   1 H        0.925     0.043     2.409     2.427
     9   1 H        0.925     0.051     2.304     2.374
    10   1 H        0.925     0.051     2.311     2.377
    11   1 H        0.924     0.071     2.079     2.255
    12   1 H        0.924     0.046     2.366     2.405
    13   1 H        0.924     0.045     2.385     2.415
    14   1 H        0.925     0.049     2.328     2.386
    15   1 H        0.922     0.032     2.559     2.502

 Mol. C6AA /au·bohr⁶  :       1933.863464
 Mol. C8AA /au·bohr⁸  :      42241.892943
 Mol. α(0) /au        :         64.876573


Wiberg/Mayer (AO) data.
largest (>0.10) Wiberg bond orders for each atom

 ---------------------------------------------------------------------------
     #   Z sym  total        # sym  WBO       # sym  WBO       # sym  WBO
 ---------------------------------------------------------------------------
     1   6 C    3.993 --     2 C    1.009     8 H    0.987    10 H    0.987
                             9 H    0.985
     2   6 C    3.991 --     1 C    1.009     3 C    1.004    12 H    0.971
                            11 H    0.970
     3   6 C    3.905 --     2 C    1.004    13 H    0.958     4 O    0.958
                             5 C    0.900
     4   8 O    2.008 --     3 C    0.958     5 C    0.924
     5   6 C    3.907 --     6 C    1.029    14 H    0.961     4 O    0.924
                             3 C    0.900
     6   6 C    3.926 --     7 O    1.903     5 C    1.029    15 H    0.930
     7   8 O    2.099 --     6 C    1.903
     8   1 H    0.998 --     1 C    0.987
     9   1 H    0.997 --     1 C    0.985
    10   1 H    0.997 --     1 C    0.987
    11   1 H    0.995 --     2 C    0.970
    12   1 H    0.998 --     2 C    0.971
    13   1 H    0.998 --     3 C    0.958
    14   1 H    0.997 --     5 C    0.961
    15   1 H    0.999 --     6 C    0.930
 ---------------------------------------------------------------------------

Topologies differ in total number of bonds
Writing topology from bond orders to xtbtopo.mol

molecular dipole:
                 x           y           z       tot (Debye)
 q only:        0.434       0.230      -1.190
   full:        0.310       0.448      -1.387       3.788
molecular quadrupole (traceless):
                xx          xy          yy          xz          yz          zz
 q only:        3.647      -3.845      -2.267       2.999      -0.949      -1.381
  q+dip:        3.779      -4.225      -1.780       3.309      -1.842      -1.999
   full:        4.082      -4.639      -2.382       3.102      -0.843      -1.700

           -------------------------------------------------
          |                Geometry Summary                 |
           -------------------------------------------------

      molecular mass/u    :      100.1160153
   center of mass at/Å    :       -0.0488901       0.0190395       0.1476561
  moments of inertia/u·Å² :        0.1055274E+03   0.2701361E+03   0.3263827E+03
rotational constants/cm⁻¹ :        0.1597466E+00   0.6240423E-01   0.5164990E-01

 * 14 selected distances

     #   Z          #   Z                                           value/Å
     1   6 C        2   6 C                                       1.5274520 (max)
     2   6 C        3   6 C                                       1.5087160
     3   6 C        4   8 O                                       1.3888454
     3   6 C        5   6 C                                       1.4899592
     4   8 O        5   6 C                                       1.4046531
     5   6 C        6   6 C                                       1.4841375
     6   6 C        7   8 O                                       1.2009546
     1   6 C        8   1 H                                       1.0881049
     1   6 C        9   1 H                                       1.0867193 (min)
     1   6 C       10   1 H                                       1.0873864
     2   6 C       11   1 H                                       1.0907098
     2   6 C       12   1 H                                       1.0929806
     3   6 C       13   1 H                                       1.0911406
     5   6 C       14   1 H                                       1.0883162

 * 3 distinct bonds (by element types)

   Z      Z             #   av. dist./Å        max./Å        min./Å
   1 H    6 C           7     1.0893368     1.0929806     1.0867193
   6 C    6 C           4     1.5025662     1.5274520     1.4841375
   6 C    8 O           3     1.3314844     1.4046531     1.2009546


optimized geometry written to: xtbopt.xyz


           -------------------------------------------------
          | TOTAL ENERGY              -22.874075059824 Eh   |
          | GRADIENT NORM               0.000029807452 Eh/α |
          | HOMO-LUMO GAP               3.502575143699 eV   |
           -------------------------------------------------

------------------------------------------------------------------------
 * finished run on 2024/08/07 at 20:31:02.924     
------------------------------------------------------------------------
 total:
 * wall-time:     0 d,  0 h,  0 min,  5.578 sec
 *  cpu-time:     0 d,  0 h,  0 min, 40.356 sec
 * ratio c/w:     7.235 speedup
 SCF:
 * wall-time:     0 d,  0 h,  0 min,  0.131 sec
 *  cpu-time:     0 d,  0 h,  0 min,  0.972 sec
 * ratio c/w:     7.410 speedup
 ANC optimizer:
 * wall-time:     0 d,  0 h,  0 min,  5.435 sec
 *  cpu-time:     0 d,  0 h,  0 min, 39.313 sec
 * ratio c/w:     7.233 speedup

