15
 energy: -22.862955968197 gnorm: 0.053313120148 xtb: 6.7.0 (08769fc)
C            2.53850761030000       -0.51237546160000        0.31080755810000
C            1.20329140790000       -0.64734799610000       -0.39705630240000
C            0.51030530930000        0.69903072850000       -0.56091538700000
O            0.00872008290000        1.28671864590000        0.61360415190000
C           -0.99568784030000        0.89716145720000       -0.31210056470000
C           -1.87208914470000       -0.24893277460000        0.07789492140000
O           -1.49885694550000       -1.38042783440000        0.13182448340000
H            3.22275009490000        0.12002030750000       -0.25662938200000
H            3.02429103620000       -1.47876540210000        0.45920921480000
H            2.40984676430000       -0.04975784160000        1.29085281460000
H            0.54186576470000       -1.30632771480000        0.17721409040000
H            1.32084648110000       -1.12552395070000       -1.37676541780000
H            1.03530335330000        1.41016002160000       -1.20882075980000
H           -1.50467617490000        1.73539232810000       -0.80011624200000
H           -2.89255169140000       -0.05241781520000        0.38510153220000
15
 energy: -22.868579309848 gnorm: 0.024869633215 xtb: 6.7.0 (08769fc)
C            2.55250734177698       -0.49289795054877        0.30099521865092
C            1.20950510843878       -0.65491074320764       -0.39251168328487
C            0.50979380831063        0.68290539037271       -0.52566764009258
O            0.00048323302214        1.26714675389621        0.64295189313929
C           -0.96524817970518        0.86907138728972       -0.30757698313854
C           -1.87270609158221       -0.25044954370318        0.09678600496096
O           -1.56658929166487       -1.41399739353672        0.16155973324377
H            3.22658452759792        0.14216179683195       -0.27345320568961
H            3.02406405054911       -1.46509320206779        0.43422357889753
H            2.41261143398962       -0.04335448340280        1.28395111500514
H            0.57908869220988       -1.32660468130871        0.19150247098597
H            1.33253245681118       -1.09797099319025       -1.38573274728699
H            0.98890758294694        1.39348557512752       -1.20271196681681
H           -1.46075157242911        1.70450333461495       -0.80391132986405
H           -2.91891699217179        0.03261145053281        0.31370025238986
15
 energy: -22.869785370266 gnorm: 0.023453669853 xtb: 6.7.0 (08769fc)
C            2.56952691829665       -0.48358982880926        0.29343074036169
C            1.21467477490593       -0.66059158375750       -0.38616949417619
C            0.50134330937716        0.66577702364510       -0.49722072227250
O           -0.01921753198485        1.24207236161157        0.66531672260942
C           -0.95155175160904        0.84425027013698       -0.31303303625499
C           -1.89454957629947       -0.25656698167670        0.06231871054813
O           -1.62325964000798       -1.42528041575248        0.21033916361744
H            3.22475853402619        0.16017084846071       -0.28987075529275
H            3.04608622050235       -1.45308534531333        0.41332466754133
H            2.42832053394474       -0.04021346981934        1.27688031251102
H            0.60976787047313       -1.34989024356506        0.19932007871078
H            1.34174923298470       -1.07095559246772       -1.39133759480407
H            0.96691249440996        1.38247330572122       -1.17329209609355
H           -1.43621471972393        1.67924092694320       -0.81558008122756
H           -2.92648056119556        0.11279542234263        0.27967809532181
15
 energy: -22.870273334196 gnorm: 0.012652128602 xtb: 6.7.0 (08769fc)
C            2.57923153117203       -0.48167836525311        0.28797158885685
C            1.21736558859914       -0.66493938885658       -0.38148217659919
C            0.49843356698759        0.65819587280188       -0.49016268629259
O           -0.02100542507103        1.23502894704608        0.67147471621217
C           -0.95367395113806        0.83950301926789       -0.30479925378194
C           -1.90302645126650       -0.25098014289431        0.08218403377406
O           -1.64809053171084       -1.41741677172710        0.21830985550768
H            3.22268169441999        0.16533986045689       -0.30437977295420
H            3.06571285073607       -1.44621150145528        0.40607778160596
H            2.44580369626877       -0.03446418782845        1.27014510786037
H            0.62080642362285       -1.35965770631627        0.20663055911644
H            1.34074611040616       -1.07202049472071       -1.38714172678321
H            0.97361331412454        1.37648935379502       -1.15819583974245
H           -1.43815144787472        1.67349209910910       -0.81096443498158
H           -2.94858086117600        0.12592610427496        0.22843695930164
15
 energy: -22.870543437791 gnorm: 0.005561399607 xtb: 6.7.0 (08769fc)
C            2.58549528742898       -0.47958477705326        0.28215364757135
C            1.21827918785079       -0.67048201848260       -0.37549123160919
C            0.49869479452055        0.65344493696588       -0.48051101269505
O           -0.02922510646180        1.22763424537269        0.67934594959738
C           -0.95944403862039        0.83952165240336       -0.30290682408340
C           -1.91634347195235       -0.24852262283891        0.07362390012284
O           -1.66096410227205       -1.40822603950362        0.22894354504631
H            3.21873969325816        0.17021993640075       -0.31892209872331
H            3.08068332926173       -1.44014508954329        0.39720904860731
H            2.46167661459461       -0.03003462223744        1.26474753012174
H            0.62735484212770       -1.36805545412801        0.21588144340496
H            1.33622199214931       -1.07916507178634       -1.38060750693401
H            0.98464716004322        1.37409326752929       -1.14028947030449
H           -1.43810186618496        1.67609272334762       -0.81302245497051
H           -2.95584820764352        0.12981563125389        0.20395024594806
15
 energy: -22.870863207068 gnorm: 0.004616171982 xtb: 6.7.0 (08769fc)
C            2.59814007195794       -0.47555851388827        0.26819314342287
C            1.21906337266641       -0.67892365302544       -0.36296239905018
C            0.49897632491422        0.64522236635724       -0.45806887321348
O           -0.04378683181133        1.21226016862561        0.69861914590812
C           -0.96397065293476        0.83584549524476       -0.29826427307320
C           -1.93696994920173       -0.24610688857963        0.05926442263176
O           -1.68558107418355       -1.39813738374542        0.27264413278709
H            3.21045272740558        0.18125668757025       -0.34815978020179
H            3.10867343636932       -1.42947079789184        0.37358393927984
H            2.49210275188070       -0.02522361925235        1.25288419050471
H            0.64037183569441       -1.37976913240054        0.23757316538932
H            1.32277510689729       -1.08753784130283       -1.36955839638195
H            0.99715548264654        1.37158525055835       -1.10529143470050
H           -1.43011591353160        1.67697301435801       -0.81500808138623
H           -2.97542058066948        0.14419154507213        0.12865580918364
15
 energy: -22.871236426281 gnorm: 0.012888526376 xtb: 6.7.0 (08769fc)
C            2.61411048921625       -0.47188401564028        0.24515830250837
C            1.21650947952532       -0.68742607237204       -0.34097392463490
C            0.49809226965766        0.63723936670092       -0.42517596216314
O           -0.06097626993601        1.19371975763414        0.72766490479446
C           -0.96902658483095        0.83581526368497       -0.28781012520459
C           -1.95686828035980       -0.24351081746270        0.03671383238587
O           -1.70111170630486       -1.37899306061901        0.34432200437147
H            3.19827154275344        0.19081457093612       -0.39318724446319
H            3.14035985300698       -1.41905857025414        0.33533641529642
H            2.53757064641949       -0.02066702998095        1.23315844223328
H            0.65518772823016       -1.38378992082002        0.28197977417939
H            1.29029780338118       -1.10424582031178       -1.34768564232845
H            1.00670978000495        1.37005188763017       -1.05951406755792
H           -1.41593125992149        1.68505627717067       -0.80877916132139
H           -3.00132938274235        0.14348488140399       -0.00710283699567
15
 energy: -22.871665315586 gnorm: 0.014472330268 xtb: 6.7.0 (08769fc)
C            2.62235772106852       -0.46950972205135        0.22577573126674
C            1.20921985869467       -0.69173425184706       -0.31845000396807
C            0.49579000563273        0.63431005191320       -0.40154237474771
O           -0.06718338174935        1.18382194498329        0.74976187551743
C           -0.97187031254218        0.84357928619544       -0.27441411413750
C           -1.96092822931332       -0.24280376780470        0.01447903089544
O           -1.69734164990228       -1.36101041350870        0.37800853840605
H            3.18767877798808        0.18972775436723       -0.43258982412258
H            3.15325140302796       -1.41411860627581        0.30855731999364
H            2.57305855352146       -0.01181909068391        1.21351612902795
H            0.66087808407747       -1.37325329036412        0.33335029570810
H            1.25144905271747       -1.12775910606188       -1.32051338848591
H            1.00686577808873        1.36844074272309       -1.03225346526168
H           -1.40334073604076        1.70191733911854       -0.79113217605647
H           -3.00801881716922        0.11681782699678       -0.11844886293542
15
 energy: -22.872190638578 gnorm: 0.011438882170 xtb: 6.7.0 (08769fc)
C            2.62185412346914       -0.46998415772670        0.20689065930225
C            1.19521900208157       -0.68849925739769       -0.29165393396873
C            0.49284730525128        0.64126903234600       -0.38520885868238
O           -0.06332050008457        1.18489691005916        0.76644535005074
C           -0.97198182333547        0.85985179330711       -0.25664603210808
C           -1.94377403760287       -0.24567082079896       -0.00986032135582
O           -1.67428113411139       -1.34461520155869        0.37816894387599
H            3.17703677792559        0.17201892146699       -0.47256113350862
H            3.14181258404880       -1.41865727897719        0.29033313562448
H            2.60130481954382        0.00310806359580        1.18828211775300
H            0.65621368413360       -1.33824465438631        0.40087441418847
H            1.20007352817835       -1.16140123858782       -1.28046518007412
H            0.99849507059082        1.37157399495689       -1.02039483561089
H           -1.39274985426192        1.72828253598631       -0.75795436296060
H           -2.98688343772680        0.05267805541516       -0.22214525142563
15
 energy: -22.872189565035 gnorm: 0.025180692762 xtb: 6.7.0 (08769fc)
C            2.62988893119110       -0.47494917416234        0.17946111586132
C            1.18284534653490       -0.68227146557472       -0.26165582377861
C            0.49350044238866        0.65458645685049       -0.35336884787667
O           -0.07658267391589        1.18646193090954        0.79365395633716
C           -0.97560952747894        0.86793377471925       -0.23953430426593
C           -1.93579767482028       -0.24942165814143       -0.03185820190797
O           -1.66375633357122       -1.32267147465064        0.45454610710920
H            3.16580659976521        0.15245084867840       -0.52876698560258
H            3.14103969005885       -1.42930931294181        0.25247601165184
H            2.64997152371327        0.01033390025411        1.15603382202241
H            0.65843705271259       -1.30607843671550        0.46677965055559
H            1.14740953653758       -1.18288184934049       -1.23853524127163
H            1.00572573812418        1.38650010678225       -0.97984524923240
H           -1.38704551623908        1.74017098237443       -0.73857821264091
H           -2.98396702690097       -0.00424793134149       -0.39670308586078
15
 energy: -22.872689086079 gnorm: 0.012461673341 xtb: 6.7.0 (08769fc)
C            2.62556454373708       -0.47856355946616        0.19153337330063
C            1.18601411026478       -0.67661706696829       -0.27231549543703
C            0.49455688365037        0.65985211476178       -0.36673983478686
O           -0.08075011152656        1.19227630112255        0.78009142556871
C           -0.97578817384363        0.86200565039046       -0.25415856204753
C           -1.93219095941319       -0.25223507666019       -0.02529738009363
O           -1.66954201668538       -1.33573927673809        0.43487720062712
H            3.17250911939484        0.14810324865410       -0.50855794747517
H            3.13111179158829       -1.43662923631582        0.26908325874019
H            2.63407788486552        0.00356097192898        1.16725011167791
H            0.65371081450494       -1.30807134015518        0.43698757456555
H            1.16885875407331       -1.16277558622146       -1.25087840758185
H            1.00907843777601        1.39245901298319       -0.99069765009735
H           -1.39835635306424        1.72830536474887       -0.75642796469599
H           -2.96698861722218        0.01067517563533       -0.32064499116466
15
 energy: -22.872876683467 gnorm: 0.004541578918 xtb: 6.7.0 (08769fc)
C            2.63046271390032       -0.47993255512039        0.18508820379786
C            1.18203321112253       -0.67418828449011       -0.26184141904565
C            0.49441774838775        0.66470512543500       -0.35562015690605
O           -0.08528521706921        1.19641540592646        0.78917740860474
C           -0.97685868318256        0.86368930613810       -0.24760334894079
C           -1.93002936987724       -0.25518261499771       -0.03010086428838
O           -1.67703931683517       -1.33217980342881        0.43833286611718
H            3.17395268577679        0.13688354114067       -0.52892506773899
H            3.13019416158134       -1.44102148068077        0.26573137178253
H            2.65586134610622        0.01018835768150        1.15720071433496
H            0.65427806244086       -1.29911690731912        0.45761156176152
H            1.15090544236394       -1.16291598547382       -1.23868875167150
H            1.01095853378636        1.39629143699570       -0.97936172657142
H           -1.40134925772271        1.72692494683478       -0.75561061763676
H           -2.96063595267925       -0.00395379094145       -0.36128546249920
15
 energy: -22.873198533969 gnorm: 0.012913817376 xtb: 6.7.0 (08769fc)
C            2.64180537307928       -0.48786181217964        0.16300219264444
C            1.17155157042557       -0.66142570943579       -0.23278729563620
C            0.49422740286057        0.68421497303762       -0.32302517107795
O           -0.10722654649131        1.20706369373186        0.81415610893037
C           -0.98218423869682        0.86851839583360       -0.23587920146474
C           -1.92193343047314       -0.26575633836420       -0.05368585954112
O           -1.68916906472943       -1.31653084638900        0.48832665315292
H            3.17758469282069        0.09862564377708       -0.58426663991384
H            3.11942228859931       -1.46058278266226        0.24873777474081
H            2.71417125934154        0.02253714482533        1.12332721295978
H            0.65795601620682       -1.26580341912346        0.51610719354025
H            1.09832512220793       -1.16145624094692       -1.20218999534221
H            1.01814129699347        1.41715559773242       -0.93862681568464
H           -1.41063541791685        1.72537630339133       -0.75448670345693
H           -2.93017021612769       -0.05746790552791       -0.49460474275088
15
 energy: -22.873383959698 gnorm: 0.009944475454 xtb: 6.7.0 (08769fc)
C            2.64329224398619       -0.49155716572891        0.15606925877530
C            1.17036908706168       -0.65519329487562       -0.22563062377459
C            0.49387080170369        0.69158259255914       -0.31317732638909
O           -0.11556923880348        1.21238659527981        0.82055873751966
C           -0.98387746840056        0.86999684933480       -0.23278820280041
C           -1.91839919391216       -0.27064090964940       -0.06053610196955
O           -1.69590731358459       -1.30934458245665        0.50710109481241
H            3.17919133692957        0.08105479807677       -0.59968173954157
H            3.11099095976209       -1.46847521814434        0.24903278234232
H            2.72747347848244        0.02748100981874        1.10826203783602
H            0.66254700509990       -1.25609571252824        0.52946236376776
H            1.08509045816105       -1.15777230692899       -1.19168489834978
H            1.01903944248406        1.42625054001493       -0.92539512393738
H           -1.41592869502458        1.72350455335266       -0.75436941264878
H           -2.91031679584537       -0.07657105042463       -0.53311813454225
15
 energy: -22.873606920290 gnorm: 0.005448395028 xtb: 6.7.0 (08769fc)
C            2.64430457815998       -0.49423467615605        0.14362841075716
C            1.16684575709915       -0.65012111301436       -0.21036907485559
C            0.49216302616346        0.69747704392889       -0.29556284300198
O           -0.12807569444450        1.21238339023925        0.83434606881369
C           -0.98664765638260        0.87446016235127       -0.22649334090823
C           -1.91539653789695       -0.27648588142974       -0.07522279432255
O           -1.70799418049825       -1.29178130447709        0.53602634857521
H            3.17329644001776        0.05665829384358       -0.63320073163691
H            3.10356229235733       -1.47367258669736        0.24820299573160
H            2.75234211088797        0.04174744957562        1.08377276498491
H            0.66867613739565       -1.24707959569545        0.55372287631265
H            1.06175977072874       -1.15842735660546       -1.17153846224100
H            1.02061778157491        1.43664756159793       -0.89982459701737
H           -1.41660769788304        1.72819830113007       -0.74836374677829
H           -2.87698001917968       -0.10916299089105       -0.60501916331323
15
 energy: -22.873719311770 gnorm: 0.007076053001 xtb: 6.7.0 (08769fc)
C            2.64439807981569       -0.49656619961394        0.12960228143620
C            1.16236435559538       -0.64703516875116       -0.19701090662346
C            0.49059116046949        0.70226036511756       -0.27766636684818
O           -0.14037901386164        1.21123434430443        0.84908616463275
C           -0.98884345366517        0.87824070173369       -0.21989236801904
C           -1.91030583406910       -0.28007807403935       -0.08436594459752
O           -1.72236962589345       -1.27079626020881        0.57237901246920
H            3.16437206645233        0.03683653909238       -0.66289413308110
H            3.09960668250259       -1.47681152295468        0.24483102736010
H            2.77086536911279        0.05408169579980        1.05745385890913
H            0.67262893630762       -1.23964295249188        0.57560193194392
H            1.04078850598205       -1.16006245196955       -1.15352010198584
H            1.02340489268408        1.44542247032250       -0.87324793900498
H           -1.41474507907503        1.73228761719690       -0.74328154000584
H           -2.84051093425771       -0.14276440583782       -0.68297026548527
15
 energy: -22.873671053057 gnorm: 0.013924567115 xtb: 6.7.0 (08769fc)
C            2.63993214376822       -0.49473212938911        0.12367782693797
C            1.16102935119714       -0.65081908278991       -0.19471150462062
C            0.48879728753648        0.69804451973193       -0.27011632324183
O           -0.14698207844161        1.20309794816847        0.85677880927096
C           -0.98899864670146        0.87964854054772       -0.21902857162886
C           -1.90938619095320       -0.27881966313074       -0.08515775158376
O           -1.74123921156778       -1.25096999226479        0.59051245231147
H            3.15100259559480        0.03095379750388       -0.67453105621408
H            3.10270560738333       -1.46977396520217        0.24990749943136
H            2.76801426453811        0.06590831127149        1.04231040911514
H            0.67351744189348       -1.24852975558981        0.57431713986124
H            1.03962776867138       -1.16112551605293       -1.15156443301044
H            1.02572925493172        1.44559528800967       -0.85669188955448
H           -1.40667684553035        1.73694259898422       -0.74169657005184
H           -2.80520663422033       -0.15881420209787       -0.70990132592215
15
 energy: -22.873816174554 gnorm: 0.004591341913 xtb: 6.7.0 (08769fc)
C            2.64455126477523       -0.49611758149346        0.11483896254592
C            1.15566406584563       -0.64838862141867       -0.18108806886880
C            0.48804078866663        0.70310026797003       -0.25526174386984
O           -0.15598866157074        1.20317748299355        0.86928757062123
C           -0.99102121078740        0.88255965105756       -0.21432153751126
C           -1.90796835354663       -0.28167375251210       -0.09948570562888
O           -1.75176012575701       -1.24039935501692        0.60888786792978
H            3.14744161723485        0.01757840515625       -0.70282996269577
H            3.10191984937266       -1.47420069548840        0.24166128452820
H            2.79396501757521        0.07527948316439        1.02920773796945
H            0.67423525146978       -1.23741146888793        0.60158428754765
H            1.01631932651334       -1.16416619764437       -1.13582076994951
H            1.02944059574952        1.45146301633916       -0.83644797422525
H           -1.40577656502803        1.74026121007239       -0.73946847013943
H           -2.78719675241311       -0.18445514659143       -0.76663876715338
15
 energy: -22.873839881489 gnorm: 0.002187334364 xtb: 6.7.0 (08769fc)
C            2.64435897146366       -0.49647208552971        0.12009090510769
C            1.15773396597734       -0.64802258023850       -0.18730958158471
C            0.48860594144013        0.70299781591191       -0.26292824076613
O           -0.14924308469205        1.20797774975441        0.86209461884610
C           -0.98980203696637        0.88127531098374       -0.21473541168506
C           -1.90750295489323       -0.27980629172010       -0.09170466490557
O           -1.74818881456999       -1.24658687641637        0.60250584901261
H            3.15156886273405        0.02536847597623       -0.68755990274430
H            3.10177325649636       -1.47523538236588        0.24081907515509
H            2.78307076979990        0.06646080650353        1.03879751347082
H            0.67364121082033       -1.23851985176183        0.59111270304549
H            1.02613721870163       -1.16186891526976       -1.14260602066981
H            1.02707381950902        1.44817173827151       -0.84979171303626
H           -1.40883799095097        1.73673428375219       -0.74049347991324
H           -2.79852302676987       -0.17586750015130       -0.74418693823264
15
 energy: -22.873852926232 gnorm: 0.002439089326 xtb: 6.7.0 (08769fc)
C            2.64433492744436       -0.49640670493181        0.12025146765139
C            1.15744771761096       -0.64829952480128       -0.18775594890054
C            0.48862479829357        0.70299023093948       -0.26297238375808
O           -0.14888942877455        1.20798308061583        0.86225107230099
C           -0.98969809317028        0.88114069888826       -0.21456816165944
C           -1.90734266278160       -0.27916973300848       -0.09149322013123
O           -1.75269712864319       -1.24339181387834        0.60855183976609
H            3.15047205450380        0.02729400501440       -0.68648736811876
H            3.10228651521710       -1.47506606702866        0.23852211575903
H            2.78273499476793        0.06467197949480        1.04002573531883
H            0.67357384531675       -1.23893354194386        0.59056396849652
H            1.02630276459818       -1.16139240882241       -1.14339479415170
H            1.02722915765468        1.44785127669262       -0.85011181284155
H           -1.40859182145584        1.73651645794725       -0.74077634239986
H           -2.79392153248192       -0.17918123747776       -0.74850145623160
15
 energy: -22.873886574090 gnorm: 0.004064500297 xtb: 6.7.0 (08769fc)
C            2.64412555584895       -0.49620534991706        0.11979129868547
C            1.15574015294558       -0.64950777300679       -0.18782193748998
C            0.48830908579234        0.70285090036158       -0.26182093357984
O           -0.14580531599317        1.20942457635472        0.86440363488139
C           -0.98962602653714        0.88258722614201       -0.21035548640331
C           -1.90626562106006       -0.27689089078049       -0.09076110608247
O           -1.77098136545024       -1.22721196225883        0.63330472021617
H            3.14542680670709        0.03416363245028       -0.68567538958253
H            3.10372286117229       -1.47472124538643        0.22861598454624
H            2.78334894996002        0.05914209914223        1.04365359081007
H            0.67342443613084       -1.23976763460992        0.59197012236182
H            1.02439150808702       -1.16204873337062       -1.14409271011886
H            1.02655206758835        1.44559029027367       -0.85208227590627
H           -1.40759041297331        1.73765134691748       -0.73830657081044
H           -2.77290657411862       -0.19844978461175       -0.77671823042737
15
 energy: -22.873911542537 gnorm: 0.001761285388 xtb: 6.7.0 (08769fc)
C            2.64389050657564       -0.49686270217375        0.12094776103543
C            1.15653921639036       -0.64882703315660       -0.19124076996563
C            0.48895051546428        0.70322622796827       -0.26457960500484
O           -0.14548615959538        1.20980985072274        0.86164731577470
C           -0.98940758762293        0.88140420549860       -0.21261667894078
C           -1.90515079729474       -0.27910067192770       -0.08950879816461
O           -1.77188871093375       -1.22195485938610        0.64283433214416
H            3.15030625497798        0.03933669221303       -0.67874951974141
H            3.10343294715800       -1.47587369623379        0.22689607200921
H            2.77886029555801        0.05298893431281        1.04913176904620
H            0.67109768336629       -1.24137311964171        0.58515708895392
H            1.02797701229631       -1.15911634623425       -1.14918209627449
H            1.02657584956693        1.44667461149847       -0.85476775224580
H           -1.40857399037177        1.73567505314516       -0.74075604196240
H           -2.77525692743529       -0.19940044890513       -0.77110836556358
15
 energy: -22.873940451157 gnorm: 0.003494013020 xtb: 6.7.0 (08769fc)
C            2.64264979121762       -0.49839274354623        0.12381606088349
C            1.15790208951533       -0.64785945286038       -0.19914931265720
C            0.48943225988732        0.70331592393837       -0.27142240103185
O           -0.14263884981325        1.21081213724171        0.85617181755702
C           -0.98949873759114        0.88044482420961       -0.21529262044080
C           -1.90805866052811       -0.27837229514550       -0.07844431943594
O           -1.77478286233309       -1.20911839273812        0.66629378193335
H            3.15783786947464        0.05184297671178       -0.66326132218432
H            3.10335409116577       -1.47814765558909        0.22046254180098
H            2.76971828211381        0.03841091283202        1.06182547873008
H            0.66671854497514       -1.24517950214336        0.57060137868174
H            1.03545278283777       -1.15361104973061       -1.16062580302939
H            1.02535551758400        1.44768879034472       -0.86241631337109
H           -1.41053951311590        1.73335488179293       -0.74373770544106
H           -2.77103649728997       -0.20858265761778       -0.77071655089494
15
 energy: -22.873959227107 gnorm: 0.002641389279 xtb: 6.7.0 (08769fc)
C            2.64140063385197       -0.49883473851390        0.12674708191828
C            1.15838912109514       -0.64777896607741       -0.20334926176399
C            0.48965270158059        0.70329125749383       -0.27466235186707
O           -0.14023793495299        1.21202837597184        0.85378349066336
C           -0.98888515510039        0.88038363186769       -0.21604005974119
C           -1.90719875787559       -0.27876351894274       -0.07536689349285
O           -1.77615569827824       -1.20363769853814        0.67776289380190
H            3.15725724894056        0.05745990723477       -0.65509611416198
H            3.10333889792529       -1.47861506425837        0.21679046850024
H            2.76564242431388        0.03164309308477        1.06875697585334
H            0.66520426499195       -1.24735458911287        0.56332943477178
H            1.03973623294498       -1.15093305846840       -1.16681883255108
H            1.02399829024870        1.44734660211055       -0.86738359537544
H           -1.41095143781293        1.73236551191632       -0.74519829618663
H           -2.76932472377297       -0.21199404806789       -0.76915022926859
15
 energy: -22.873984062967 gnorm: 0.001329985011 xtb: 6.7.0 (08769fc)
C            2.63914525178318       -0.49909832371884        0.13122279356338