      -----------------------------------------------------------      
     |                   =====================                   |     
     |                           x T B                           |     
     |                   =====================                   |     
     |                         S. Grimme                         |     
     |          Mulliken Center for Theoretical Chemistry        |     
     |                    University of Bonn                     |     
      -----------------------------------------------------------      

   * xtb version 6.7.1 (edcfbbe) compiled by 'albert@albert-system' on 2024-07-22

   xtb is free software: you can redistribute it and/or modify it under
   the terms of the GNU Lesser General Public License as published by
   the Free Software Foundation, either version 3 of the License, or
   (at your option) any later version.
   
   xtb is distributed in the hope that it will be useful,
   but WITHOUT ANY WARRANTY; without even the implied warranty of
   MERCHANTABILITY or FITNESS FOR A PARTICULAR PURPOSE.  See the
   GNU Lesser General Public License for more details.
   
   Cite this work as:
   * C. Bannwarth, E. Caldeweyher, S. Ehlert, A. Hansen, P. Pracht,
     J. Seibert, S. Spicher, S. Grimme, WIREs Comput. Mol. Sci., 2020, 11,
     e01493. DOI: 10.1002/wcms.1493
   
   for GFN2-xTB:
   * C. Bannwarth, S. Ehlert and S. Grimme., J. Chem. Theory Comput., 2019,
     15, 1652-1671. DOI: 10.1021/acs.jctc.8b01176
   for GFN1-xTB:
   * S. Grimme, C. Bannwarth, P. Shushkov, J. Chem. Theory Comput., 2017,
     13, 1989-2009. DOI: 10.1021/acs.jctc.7b00118
   for GFN0-xTB:
   * P. Pracht, E. Caldeweyher, S. Ehlert, S. Grimme, ChemRxiv, 2019, preprint.
     DOI: 10.26434/chemrxiv.8326202.v1
   for GFN-FF:
   * S. Spicher and S. Grimme, Angew. Chem. Int. Ed., 2020, 59, 15665-15673.
     DOI: 10.1002/anie.202004239
   
   for ALPB and GBSA implicit solvation:
   * S. Ehlert, M. Stahn, S. Spicher, S. Grimme, J. Chem. Theory Comput.,
     2021, 17, 4250-4261. DOI: 10.1021/acs.jctc.1c00471
   
   for ddCOSMO and CPCM-X implicit solvation:
   * M. Stahn, S. Ehlert, S. Grimme, J. Phys. Chem. A,
     2023, XX, XXXX-XXXX. DOI: 10.1021/acs.jpca.3c04382
   
   for DFT-D4:
   * E. Caldeweyher, C. Bannwarth and S. Grimme, J. Chem. Phys., 2017,
     147, 034112. DOI: 10.1063/1.4993215
   * E. Caldeweyher, S. Ehlert, A. Hansen, H. Neugebauer, S. Spicher,
     C. Bannwarth and S. Grimme, J. Chem. Phys., 2019, 150, 154122.
     DOI: 10.1063/1.5090222
   * E. Caldeweyher, J.-M. Mewes, S. Ehlert and S. Grimme, Phys. Chem. Chem. Phys.
     2020, 22, 8499-8512. DOI: 10.1039/D0CP00502A
   
   for sTDA-xTB:
   * S. Grimme and C. Bannwarth, J. Chem. Phys., 2016, 145, 054103.
     DOI: 10.1063/1.4959605
   
   in the mass-spec context:
   * V. Asgeirsson, C. Bauer and S. Grimme, Chem. Sci., 2017, 8, 4879.
     DOI: 10.1039/c7sc00601b
   * J. Koopman and S. Grimme, ACS Omega 2019, 4, 12, 15120-15133.
     DOI: 10.1021/acsomega.9b02011
   
   for metadynamics refer to:
   * S. Grimme, J. Chem. Theory Comput., 2019, 155, 2847-2862
     DOI: 10.1021/acs.jctc.9b00143
   
   for SPH calculations refer to:
   * S. Spicher and S. Grimme, J. Chem. Theory Comput., 2021, 17, 1701-1714
     DOI: 10.1021/acs.jctc.0c01306
   
   for ONIOM refer to:
   * C. Plett, A. Katbashev, S. Ehlert, S. Grimme, M. Bursch,
     Phys. Chem. Chem. Phys., 2023, 25, 17860-17868. DOI: 10.1039/D3CP02178E
   
   for DIPRO refer to:
   * J. Kohn, N. Gildemeister, S. Grimme, D. Fazzi, A. Hansen,
     J. Chem. Phys., 2023, just accepted.
   
   for PTB refer to:
   * S. Grimme, M. Mueller, A. Hansen, J. Chem. Phys., 2023, 158, 124111.
     DOI: 10.1063/5.0137838
   
   with help from (in alphabetical order)
   P. Atkinson, C. Bannwarth, F. Bohle, G. Brandenburg, E. Caldeweyher
   M. Checinski, S. Dohm, S. Ehlert, S. Ehrlich, I. Gerasimov, C. Hölzer
   A. Katbashev, J. Kohn, J. Koopman, C. Lavigne, S. Lehtola, F. März, M. Müller,
   F. Musil, H. Neugebauer, J. Pisarek, C. Plett, P. Pracht, F. Pultar,
   J. Seibert, P. Shushkov, S. Spicher, M. Stahn, M. Steiner, T. Strunk,
   J. Stückrath, T. Rose, and J. Unsleber
   
 * started run on 2024/08/07 at 21:04:44.408     
   ID    Z sym.   atoms
    1    6 C      1, 2, 4, 6, 7
    2    8 O      3, 5
    3    1 H      8-13

           -------------------------------------------------
          |                Calculation Setup                |
           -------------------------------------------------

          program call               : xtb crest_best.xyz --gfn 2 --alpb toluene --opt vtight -c 0 --iterations 40
          coordinate file            : crest_best.xyz
          omp threads                :                     8


           -------------------------------------------------
          |                 G F N 2 - x T B                 |
           -------------------------------------------------

        Reference                      10.1021/acs.jctc.8b01176
      * Hamiltonian:
        H0-scaling (s, p, d)           1.850000    2.230000    2.230000
        zeta-weighting                 0.500000
      * Dispersion:
        s8                             2.700000
        a1                             0.520000
        a2                             5.000000
        s9                             5.000000
      * Repulsion:
        kExp                           1.500000    1.000000
        rExp                           1.000000
      * Coulomb:
        alpha                          2.000000
        third order                    shell-resolved
        anisotropic                    true
        a3                             3.000000
        a5                             4.000000
        cn-shift                       1.200000
        cn-exp                         4.000000
        max-rad                        5.000000

      * Solvation model:               ALPB
        Solvent                        toluene
        Parameter file                 internal GFN2-xTB/ALPB
        Dielectric constant                7.0000E+00
        Reference state                gsolv [1 M gas/solution]
        Free energy shift                  2.2081E-03 Eh       1.3856E+00 kcal/mol
        Temperature                        2.9815E+02 K
        Density                            8.6700E-01 kg/L
        Solvent mass                       7.8110E+01 g/mol
        Interaction kernel             P16
        Born radius scaling (c1)           1.7172E+00
        Born radii integrator          GBOBC
        Born offset                        0.0000E+00 a0       0.0000E+00 AA
        H-bond correction              false
        Ion screening                  false
        Surface tension                    1.0000E-05 Eh       1.5569E+01 dyn/cm
        Grid points                               230 per atom

          ...................................................
          :                      SETUP                      :
          :.................................................:
          :  # basis functions                  34          :
          :  # atomic orbitals                  34          :
          :  # shells                           20          :
          :  # electrons                        38          :
          :  max. iterations                    40          :
          :  Hamiltonian                  GFN2-xTB          :
          :  restarted?                      false          :
          :  GBSA solvation                   true          :
          :  PC potential                    false          :
          :  electronic temp.          300.0000000     K    :
          :  accuracy                    1.0000000          :
          :  -> integral cutoff          0.2500000E+02      :
          :  -> integral neglect         0.1000000E-07      :
          :  -> SCF convergence          0.1000000E-05 Eh   :
          :  -> wf. convergence          0.1000000E-03 e    :
          :  Broyden damping             0.4000000          :
          :  net charge                          0          :
          :  unpaired electrons                  0          :
          ...................................................

 iter      E             dE          RMSdq      gap      omega  full diag
   1    -22.0729744 -0.220730E+02  0.601E+00    4.33       0.0  T
   2    -22.1066862 -0.337118E-01  0.332E+00    3.47       1.0  T
   3    -22.0994930  0.719319E-02  0.168E+00    3.96       1.0  T
   4    -22.1102294 -0.107363E-01  0.586E-01    3.61       1.0  T
   5    -22.1140978 -0.386839E-02  0.144E-01    3.62       1.0  T
   6    -22.1142203 -0.122573E-03  0.596E-02    3.64       1.0  T
   7    -22.1142313 -0.110008E-04  0.231E-02    3.63       1.2  T
   8    -22.1142320 -0.684319E-06  0.401E-03    3.63       6.9  T
   9    -22.1142320 -0.362559E-07  0.189E-03    3.63      14.7  T
  10    -22.1142321 -0.102146E-07  0.577E-04    3.63      48.1  T
  11    -22.1142321 -0.192895E-08  0.146E-04    3.63     190.1  T

   *** convergence criteria satisfied after 11 iterations ***

         #    Occupation            Energy/Eh            Energy/eV
      -------------------------------------------------------------
         1        2.0000           -0.7385587             -20.0972
       ...           ...                  ...                  ...
        13        2.0000           -0.4992905             -13.5864
        14        2.0000           -0.4919432             -13.3865
        15        2.0000           -0.4821654             -13.1204
        16        2.0000           -0.4544893             -12.3673
        17        2.0000           -0.4328199             -11.7776
        18        2.0000           -0.4289998             -11.6737
        19        2.0000           -0.4067164             -11.0673 (HOMO)
        20                         -0.2732513              -7.4355 (LUMO)
        21                         -0.1856891              -5.0529
        22                         -0.1754100              -4.7732
        23                          0.0297748               0.8102
        24                          0.0721126               1.9623
       ...                                ...                  ...
        34                          1.3437966              36.5666
      -------------------------------------------------------------
                  HL-Gap            0.1334651 Eh            3.6318 eV
             Fermi-level           -0.3399838 Eh           -9.2514 eV

 SCC (total)                   0 d,  0 h,  0 min,  0.028 sec
 SCC setup                      ...        0 min,  0.000 sec (  1.227%)
 Dispersion                     ...        0 min,  0.000 sec (  0.276%)
 classical contributions        ...        0 min,  0.000 sec (  0.062%)
 integral evaluation            ...        0 min,  0.001 sec (  1.998%)
 iterations                     ...        0 min,  0.016 sec ( 58.542%)
 molecular gradient             ...        0 min,  0.010 sec ( 35.496%)
 printout                       ...        0 min,  0.001 sec (  2.246%)

         :::::::::::::::::::::::::::::::::::::::::::::::::::::
         ::                     SUMMARY                     ::
         :::::::::::::::::::::::::::::::::::::::::::::::::::::
         :: total energy             -21.804865899882 Eh    ::
         :: total w/o Gsasa/hb       -21.796585165064 Eh    ::
         :: gradient norm              0.067836583237 Eh/a0 ::
         :: HOMO-LUMO gap              3.631770132423 eV    ::
         ::.................................................::
         :: SCC energy               -22.114214674142 Eh    ::
         :: -> isotropic ES            0.053226610752 Eh    ::
         :: -> anisotropic ES          0.000390244879 Eh    ::
         :: -> anisotropic XC          0.009630204171 Eh    ::
         :: -> dispersion             -0.007628159867 Eh    ::
         :: -> Gsolv                  -0.010809814510 Eh    ::
         ::    -> Gelec               -0.002529079692 Eh    ::
         ::    -> Gsasa               -0.010488877956 Eh    ::
         ::    -> Ghb                  0.000000000000 Eh    ::
         ::    -> Gshift               0.002208143139 Eh    ::
         :: repulsion energy           0.309348774261 Eh    ::
         :: add. restraining           0.000000000000 Eh    ::
         :: total charge              -0.000000000000 e     ::
         :::::::::::::::::::::::::::::::::::::::::::::::::::::

      ----------------------------------------------------------- 
     |                   =====================                   |
     |                        A N C O P T                        |
     |                   =====================                   |
     |               Approximate Normal Coordinate               |
     |                Rational Function Optimizer                |
      ----------------------------------------------------------- 
      ----------------------------------------------------------- 
     |                   =====================                   |
     |                        A N C O P T                        |
     |                   =====================                   |
     |               Approximate Normal Coordinate               |
     |                Rational Function Optimizer                |
      ----------------------------------------------------------- 

          ...................................................
          :                      SETUP                      :
          :.................................................:
          :   optimization level         verytight          :
          :   max. optcycles                   260          :
          :   ANC micro-cycles                  20          :
          :   degrees of freedom                33          :
          :.................................................:
          :   RF solver                   davidson          :
          :   write xtbopt.log                true          :
          :   linear?                        false          :
          :   energy convergence         0.1000000E-06 Eh   :
          :   grad. convergence          0.2000000E-03 Eh/α :
          :   maxmium RF displ.          1.0000000          :
          :   Hlow (freq-cutoff)         0.1000000E-01      :
          :   Hmax (freq-cutoff)         5.0000000          :
          :   S6 in model hess.         20.0000000          :
          ...................................................

generating ANC from exact Hessian ...
Using Lindh-Hessian (1995)
 Shifting diagonal of input Hessian by   9.521160074758060E-003
 Lowest  eigenvalues of input Hessian
    0.000000    0.000000    0.000000    0.000000    0.000000    0.000000
    0.010000    0.011490    0.015781    0.018968    0.023273    0.027622
    0.039698    0.049607    0.069533    0.072007    0.086926    0.104674
 Highest eigenvalues
    1.159516    1.214190    1.401923    1.503317    2.188247    2.510341
 

........................................................................
.............................. CYCLE    1 ..............................
........................................................................

 iter      E             dE          RMSdq      gap      omega  full diag
   1    -22.1142321 -0.221142E+02  0.591E-05    3.63       0.0  T
   2    -22.1142321 -0.138947E-10  0.318E-05    3.63     872.6  T
   3    -22.1142321 -0.349232E-11  0.190E-05    3.63    1462.2  T
     SCC iter.                  ...        0 min,  0.001 sec
     gradient                   ...        0 min,  0.003 sec
 * total energy  :   -21.8048659 Eh     change       -0.7962342E-10 Eh
   gradient norm :     0.0678335 Eh/α   predicted     0.0000000E+00 (-100.00%)
   displ. norm   :     0.1808115 α      lambda       -0.5346737E-02
   maximum displ.:     0.0647195 α      in ANC's #9, #2, #7, ...

........................................................................
.............................. CYCLE    2 ..............................
........................................................................

 iter      E             dE          RMSdq      gap      omega  full diag
   1    -22.1218267 -0.221218E+02  0.260E-01    3.55       0.0  T
   2    -22.1218447 -0.179524E-04  0.160E-01    3.58       1.0  T
   3    -22.1217346  0.110066E-03  0.103E-01    3.56       1.0  T
   4    -22.1218561 -0.121427E-03  0.251E-02    3.57       1.1  T
   5    -22.1218626 -0.650908E-05  0.503E-03    3.58       5.5  T
   6    -22.1218626 -0.253849E-07  0.258E-03    3.58      10.7  T
   7    -22.1218626 -0.118695E-07  0.902E-04    3.58      30.7  T
   8    -22.1218626 -0.944517E-09  0.231E-04    3.58     120.0  T
     SCC iter.                  ...        0 min,  0.010 sec
     gradient                   ...        0 min,  0.002 sec
 * total energy  :   -21.8080881 Eh     change       -0.3222203E-02 Eh
   gradient norm :     0.0196715 Eh/α   predicted    -0.2760769E-02 ( -14.32%)
   displ. norm   :     0.2024756 α      lambda       -0.1230899E-02
   maximum displ.:     0.1262252 α      in ANC's #3, #1, #4, ...

........................................................................
.............................. CYCLE    3 ..............................
........................................................................

 iter      E             dE          RMSdq      gap      omega  full diag
   1    -22.1211133 -0.221211E+02  0.229E-01    3.58       0.0  T
   2    -22.1211147 -0.140456E-05  0.141E-01    3.59       1.0  T
   3    -22.1209912  0.123454E-03  0.103E-01    3.58       1.0  T
   4    -22.1211277 -0.136508E-03  0.122E-02    3.59       2.3  T
   5    -22.1211292 -0.149639E-05  0.288E-03    3.59       9.6  T
   6    -22.1211292 -0.750742E-08  0.129E-03    3.59      21.4  T
   7    -22.1211293 -0.360806E-08  0.439E-04    3.59      63.2  T
   8    -22.1211293 -0.376986E-09  0.995E-05    3.59     278.7  T
     SCC iter.                  ...        0 min,  0.011 sec
     gradient                   ...        0 min,  0.012 sec
 * total energy  :   -21.8087947 Eh     change       -0.7065961E-03 Eh
   gradient norm :     0.0096052 Eh/α   predicted    -0.6406800E-03 (  -9.33%)
   displ. norm   :     0.2399939 α      lambda       -0.6909173E-03
   maximum displ.:     0.1985871 α      in ANC's #2, #3, #7, ...

........................................................................
.............................. CYCLE    4 ..............................
........................................................................

 iter      E             dE          RMSdq      gap      omega  full diag
   1    -22.1211001 -0.221211E+02  0.293E-01    3.60       0.0  T
   2    -22.1211019 -0.183085E-05  0.173E-01    3.61       1.0  T
   3    -22.1210988  0.312992E-05  0.178E-02    3.60       1.6  T
   4    -22.1211023 -0.348574E-05  0.644E-03    3.60       4.3  T
   5    -22.1211027 -0.410972E-06  0.265E-03    3.61      10.5  T
   6    -22.1211027 -0.296403E-07  0.852E-04    3.60      32.6  T
   7    -22.1211027 -0.119075E-08  0.240E-04    3.61     115.4  T
     SCC iter.                  ...        0 min,  0.015 sec
     gradient                   ...        0 min,  0.005 sec
 * total energy  :   -21.8091920 Eh     change       -0.3973496E-03 Eh
   gradient norm :     0.0105985 Eh/α   predicted    -0.3653567E-03 (  -8.05%)
   displ. norm   :     0.2700454 α      lambda       -0.5206302E-03
   maximum displ.:     0.1724378 α      in ANC's #2, #3, #1, ...

........................................................................
.............................. CYCLE    5 ..............................
........................................................................

 iter      E             dE          RMSdq      gap      omega  full diag
   1    -22.1214164 -0.221214E+02  0.199E-01    3.63       0.0  T
   2    -22.1214174 -0.961425E-06  0.118E-01    3.63       1.0  T
   3    -22.1214172  0.171183E-06  0.770E-03    3.63       3.6  T
   4    -22.1214176 -0.401739E-06  0.414E-03    3.63       6.7  T
   5    -22.1214177 -0.127061E-06  0.191E-03    3.63      14.5  T
   6    -22.1214177 -0.153447E-07  0.568E-04    3.63      48.8  T
   7    -22.1214177 -0.853010E-09  0.227E-04    3.63     122.2  T
     SCC iter.                  ...        0 min,  0.008 sec
     gradient                   ...        0 min,  0.005 sec
 * total energy  :   -21.8096363 Eh     change       -0.4442872E-03 Eh
   gradient norm :     0.0107018 Eh/α   predicted    -0.2793018E-03 ( -37.13%)
   displ. norm   :     0.5476122 α      lambda       -0.9727320E-03
   maximum displ.:     0.3633936 α      in ANC's #2, #3, #1, ...

........................................................................
.............................. CYCLE    6 ..............................
........................................................................

 iter      E             dE          RMSdq      gap      omega  full diag
   1    -22.1195247 -0.221195E+02  0.403E-01    3.66       0.0  T
   2    -22.1195295 -0.488922E-05  0.239E-01    3.66       1.0  T
   3    -22.1195280  0.156906E-05  0.181E-02    3.66       1.5  T
   4    -22.1195308 -0.278646E-05  0.745E-03    3.66       3.7  T
   5    -22.1195311 -0.320985E-06  0.462E-03    3.66       6.0  T
   6    -22.1195312 -0.108956E-06  0.142E-03    3.66      19.5  T
   7    -22.1195312 -0.129386E-07  0.464E-04    3.66      59.8  T
   8    -22.1195312 -0.287070E-09  0.144E-04    3.66     192.4  T
     SCC iter.                  ...        0 min,  0.008 sec
     gradient                   ...        0 min,  0.001 sec
 * total energy  :   -21.8103067 Eh     change       -0.6703456E-03 Eh
   gradient norm :     0.0113123 Eh/α   predicted    -0.6322253E-03 (  -5.69%)
   displ. norm   :     0.3098545 α      lambda       -0.4159708E-03
   maximum displ.:     0.2122854 α      in ANC's #2, #3, #1, ...

........................................................................
.............................. CYCLE    7 ..............................
........................................................................

 iter      E             dE          RMSdq      gap      omega  full diag
   1    -22.1206023 -0.221206E+02  0.245E-01    3.67       0.0  T
   2    -22.1206045 -0.217962E-05  0.145E-01    3.67       1.0  T
   3    -22.1205972  0.725039E-05  0.242E-02    3.68       1.1  T
   4    -22.1206048 -0.754420E-05  0.779E-03    3.67       3.6  T
   5    -22.1206054 -0.660718E-06  0.243E-03    3.67      11.4  T
   6    -22.1206055 -0.125600E-07  0.969E-04    3.67      28.6  T
   7    -22.1206055 -0.349994E-08  0.341E-04    3.67      81.3  T
     SCC iter.                  ...        0 min,  0.003 sec
     gradient                   ...        0 min,  0.006 sec
 * total energy  :   -21.8106086 Eh     change       -0.3019439E-03 Eh
   gradient norm :     0.0093636 Eh/α   predicted    -0.2279549E-03 ( -24.50%)
   displ. norm   :     0.2188454 α      lambda       -0.3287100E-03
   maximum displ.:     0.1556914 α      in ANC's #2, #3, #4, ...

........................................................................
.............................. CYCLE    8 ..............................
........................................................................

 iter      E             dE          RMSdq      gap      omega  full diag
   1    -22.1234720 -0.221235E+02  0.199E-01    3.68       0.0  T
   2    -22.1234731 -0.117308E-05  0.118E-01    3.68       1.0  T
   3    -22.1234475  0.256431E-04  0.449E-02    3.68       1.0  T
   4    -22.1234750 -0.274574E-04  0.446E-03    3.68       6.2  T
   5    -22.1234751 -0.112887E-06  0.224E-03    3.68      12.4  T
   6    -22.1234751 -0.183930E-07  0.795E-04    3.68      34.9  T
   7    -22.1234751 -0.112583E-08  0.278E-04    3.68      99.9  T
     SCC iter.                  ...        0 min,  0.006 sec
     gradient                   ...        0 min,  0.001 sec
 * total energy  :   -21.8108218 Eh     change       -0.2132211E-03 Eh
   gradient norm :     0.0046954 Eh/α   predicted    -0.1722259E-03 ( -19.23%)
   displ. norm   :     0.2473660 α      lambda       -0.1556705E-03
   maximum displ.:     0.1676634 α      in ANC's #2, #3, #4, ...

........................................................................
.............................. CYCLE    9 ..............................
........................................................................

 iter      E             dE          RMSdq      gap      omega  full diag
   1    -22.1220671 -0.221221E+02  0.195E-01    3.69       0.0  T
   2    -22.1220687 -0.163552E-05  0.115E-01    3.69       1.0  T
   3    -22.1220687  0.127380E-07  0.742E-03    3.68       3.7  T
   4    -22.1220691 -0.410844E-06  0.348E-03    3.69       8.0  T
   5    -22.1220691 -0.200598E-07  0.235E-03    3.69      11.8  T
   6    -22.1220692 -0.348614E-07  0.110E-03    3.69      25.2  T
   7    -22.1220692 -0.830488E-08  0.292E-04    3.69      94.9  T
   8    -22.1220692 -0.190621E-09  0.945E-05    3.69     293.6  T
     SCC iter.                  ...        0 min,  0.006 sec
     gradient                   ...        0 min,  0.002 sec
 * total energy  :   -21.8109067 Eh     change       -0.8488643E-04 Eh
   gradient norm :     0.0060741 Eh/α   predicted    -0.8260133E-04 (  -2.69%)
   displ. norm   :     0.1064533 α      lambda       -0.1378807E-03
   maximum displ.:     0.0480960 α      in ANC's #3, #4, #6, ...

........................................................................
.............................. CYCLE   10 ..............................
........................................................................

 iter      E             dE          RMSdq      gap      omega  full diag
   1    -22.1250308 -0.221250E+02  0.836E-02    3.70       0.0  T
   2    -22.1250318 -0.985037E-06  0.500E-02    3.70       1.0  T
   3    -22.1250258  0.601595E-05  0.233E-02    3.70       1.2  T
   4    -22.1250323 -0.646599E-05  0.473E-03    3.70       5.9  T
   5    -22.1250325 -0.224793E-06  0.167E-03    3.70      16.6  T
   6    -22.1250325 -0.483811E-08  0.551E-04    3.70      50.3  T
   7    -22.1250325 -0.145800E-09  0.192E-04    3.70     144.6  T
     SCC iter.                  ...        0 min,  0.003 sec
     gradient                   ...        0 min,  0.004 sec
 * total energy  :   -21.8109963 Eh     change       -0.8957543E-04 Eh
   gradient norm :     0.0061061 Eh/α   predicted    -0.6972105E-04 ( -22.16%)
   displ. norm   :     0.1534315 α      lambda       -0.1201558E-03
   maximum displ.:     0.0778814 α      in ANC's #3, #4, #2, ...

........................................................................
.............................. CYCLE   11 ..............................
........................................................................

 iter      E             dE          RMSdq      gap      omega  full diag
   1    -22.1239650 -0.221240E+02  0.133E-01    3.71       0.0  T
   2    -22.1239663 -0.130042E-05  0.792E-02    3.70       1.0  T
   3    -22.1239601  0.618468E-05  0.230E-02    3.70       1.2  T
   4    -22.1239667 -0.662959E-05  0.552E-03    3.70       5.0  T
   5    -22.1239670 -0.267848E-06  0.196E-03    3.70      14.1  T
   6    -22.1239670 -0.124664E-07  0.879E-04    3.70      31.6  T
   7    -22.1239670 -0.135365E-08  0.269E-04    3.70     103.1  T
     SCC iter.                  ...        0 min,  0.003 sec
     gradient                   ...        0 min,  0.001 sec
 * total energy  :   -21.8110803 Eh     change       -0.8397078E-04 Eh
   gradient norm :     0.0055512 Eh/α   predicted    -0.6149233E-04 ( -26.77%)
   displ. norm   :     0.2275709 α      lambda       -0.1722422E-03
   maximum displ.:     0.1243492 α      in ANC's #3, #1, #6, ...

........................................................................
.............................. CYCLE   12 ..............................
........................................................................

 iter      E             dE          RMSdq      gap      omega  full diag
   1    -22.1239800 -0.221240E+02  0.204E-01    3.72       0.0  T
   2    -22.1239822 -0.219351E-05  0.121E-01    3.72       1.0  T
   3    -22.1239806  0.162169E-05  0.143E-02    3.72       1.9  T
   4    -22.1239826 -0.196438E-05  0.725E-03    3.72       3.8  T
   5    -22.1239830 -0.455944E-06  0.328E-03    3.72       8.4  T
   6    -22.1239831 -0.451606E-07  0.125E-03    3.72      22.2  T
   7    -22.1239831 -0.431449E-08  0.369E-04    3.72      75.2  T
   8    -22.1239831 -0.416858E-09  0.120E-04    3.72     231.4  T
     SCC iter.                  ...        0 min,  0.005 sec
     gradient                   ...        0 min,  0.001 sec
 * total energy  :   -21.8111790 Eh     change       -0.9871867E-04 Eh
   gradient norm :     0.0080338 Eh/α   predicted    -0.9058390E-04 (  -8.24%)
   displ. norm   :     0.1187938 α      lambda       -0.1283787E-03
   maximum displ.:     0.0807473 α      in ANC's #1, #2, #7, ...

........................................................................
.............................. CYCLE   13 ..............................
........................................................................

 iter      E             dE          RMSdq      gap      omega  full diag
   1    -22.1243651 -0.221244E+02  0.136E-01    3.73       0.0  T
   2    -22.1243662 -0.104613E-05  0.803E-02    3.73       1.0  T
   3    -22.1243647  0.147488E-05  0.123E-02    3.73       2.3  T
   4    -22.1243662 -0.152586E-05  0.465E-03    3.73       6.0  T
   5    -22.1243665 -0.251352E-06  0.165E-03    3.73      16.8  T
   6    -22.1243665 -0.592755E-08  0.571E-04    3.73      48.6  T
   7    -22.1243665 -0.745501E-09  0.177E-04    3.73     156.9  T
     SCC iter.                  ...        0 min,  0.003 sec
     gradient                   ...        0 min,  0.001 sec
 * total energy  :   -21.8112318 Eh     change       -0.5279827E-04 Eh
   gradient norm :     0.0041509 Eh/α   predicted    -0.6509491E-04 (  23.29%)
   displ. norm   :     0.1381413 α      lambda       -0.6897156E-04
   maximum displ.:     0.0941214 α      in ANC's #3, #1, #4, ...

........................................................................
.............................. CYCLE   14 ..............................
........................................................................

 iter      E             dE          RMSdq      gap      omega  full diag
   1    -22.1221571 -0.221222E+02  0.107E-01    3.73       0.0  T
   2    -22.1221585 -0.131312E-05  0.630E-02    3.73       1.0  T
   3    -22.1221578  0.662940E-06  0.931E-03    3.73       3.0  T
   4    -22.1221584 -0.578575E-06  0.565E-03    3.73       4.9  T
   5    -22.1221587 -0.355936E-06  0.169E-03    3.73      16.4  T
   6    -22.1221587 -0.303131E-08  0.739E-04    3.73      37.5  T
   7    -22.1221587 -0.224842E-08  0.217E-04    3.73     128.1  T
     SCC iter.                  ...        0 min,  0.007 sec
     gradient                   ...        0 min,  0.001 sec
 * total energy  :   -21.8112683 Eh     change       -0.3650825E-04 Eh
   gradient norm :     0.0051823 Eh/α   predicted    -0.3514460E-04 (  -3.74%)
   displ. norm   :     0.0350778 α      lambda       -0.4321954E-04
   maximum displ.:     0.0237592 α      in ANC's #3, #1, #8, ...

........................................................................
.............................. CYCLE   15 ..............................
........................................................................

 iter      E             dE          RMSdq      gap      omega  full diag
   1    -22.1232767 -0.221233E+02  0.283E-02    3.75       0.0  T
   2    -22.1232769 -0.254841E-06  0.168E-02    3.75       1.6  T
   3    -22.1232769  0.552186E-07  0.357E-03    3.75       7.8  T
   4    -22.1232770 -0.921673E-07  0.933E-04    3.75      29.7  T
   5    -22.1232770 -0.374018E-08  0.528E-04    3.75      52.5  T
     SCC iter.                  ...        0 min,  0.009 sec
     gradient                   ...        0 min,  0.001 sec
 * total energy  :   -21.8112967 Eh     change       -0.2837920E-04 Eh
   gradient norm :     0.0030305 Eh/α   predicted    -0.2163790E-04 ( -23.75%)
   displ. norm   :     0.0632171 α      lambda       -0.3303952E-04
   maximum displ.:     0.0414021 α      in ANC's #3, #1, #4, ...

........................................................................
.............................. CYCLE   16 ..............................
........................................................................

 iter      E             dE          RMSdq      gap      omega  full diag
   1    -22.1241809 -0.221242E+02  0.484E-02    3.75       0.0  T
   2    -22.1241810 -0.141686E-06  0.286E-02    3.75       1.0  T
   3    -22.1241798  0.119234E-05  0.978E-03    3.75       2.8  T
   4    -22.1241811 -0.128895E-05  0.175E-03    3.75      15.9  T
   5    -22.1241812 -0.211556E-07  0.760E-04    3.75      36.5  T
   6    -22.1241812 -0.199066E-08  0.285E-04    3.75      97.3  T
     SCC iter.                  ...        0 min,  0.002 sec
     gradient                   ...        0 min,  0.001 sec
 * total energy  :   -21.8113188 Eh     change       -0.2215913E-04 Eh
   gradient norm :     0.0024429 Eh/α   predicted    -0.1658652E-04 ( -25.15%)
   displ. norm   :     0.1147594 α      lambda       -0.2937536E-04
   maximum displ.:     0.0731251 α      in ANC's #3, #1, #4, ...

........................................................................
.............................. CYCLE   17 ..............................
........................................................................

 iter      E             dE          RMSdq      gap      omega  full diag
   1    -22.1239346 -0.221239E+02  0.835E-02    3.76       0.0  T
   2    -22.1239349 -0.292047E-06  0.495E-02    3.76       1.0  T
   3    -22.1239346  0.282645E-06  0.614E-03    3.76       4.5  T
   4    -22.1239350 -0.378605E-06  0.270E-03    3.76      10.3  T
   5    -22.1239350 -0.456343E-07  0.120E-03    3.76      23.2  T
   6    -22.1239350 -0.716730E-08  0.406E-04    3.76      68.4  T
   7    -22.1239350 -0.346649E-09  0.134E-04    3.76     206.3  T
     SCC iter.                  ...        0 min,  0.007 sec
     gradient                   ...        0 min,  0.001 sec
 * total energy  :   -21.8113396 Eh     change       -0.2074623E-04 Eh
   gradient norm :     0.0026643 Eh/α   predicted    -0.1488213E-04 ( -28.27%)
   displ. norm   :     0.1060925 α      lambda       -0.3488795E-04
   maximum displ.:     0.0730424 α      in ANC's #3, #4, #1, ...

........................................................................
.............................. CYCLE   18 ..............................
........................................................................

 iter      E             dE          RMSdq      gap      omega  full diag
   1    -22.1246314 -0.221246E+02  0.698E-02    3.77       0.0  T
   2    -22.1246318 -0.445307E-06  0.414E-02    3.77       1.0  T
   3    -22.1246314  0.371669E-06  0.633E-03    3.77       4.4  T
   4    -22.1246318 -0.342780E-06  0.342E-03    3.77       8.1  T
   5    -22.1246319 -0.131360E-06  0.939E-04    3.77      29.5  T
   6    -22.1246319 -0.259209E-08  0.427E-04    3.77      65.0  T
     SCC iter.                  ...        0 min,  0.002 sec
     gradient                   ...        0 min,  0.004 sec
 * total energy  :   -21.8113600 Eh     change       -0.2036445E-04 Eh
   gradient norm :     0.0030768 Eh/α   predicted    -0.1763928E-04 ( -13.38%)
   displ. norm   :     0.0988275 α      lambda       -0.1986689E-04
   maximum displ.:     0.0618939 α      in ANC's #3, #4, #1, ...

........................................................................
.............................. CYCLE   19 ..............................
........................................................................

 iter      E             dE          RMSdq      gap      omega  full diag
   1    -22.1239777 -0.221240E+02  0.690E-02    3.77       0.0  T
   2    -22.1239780 -0.314051E-06  0.410E-02    3.77       1.0  T
   3    -22.1239774  0.637431E-06  0.808E-03    3.77       3.4  T
   4    -22.1239781 -0.703800E-06  0.291E-03    3.77       9.5  T
   5    -22.1239782 -0.752886E-07  0.124E-03    3.77      22.3  T
   6    -22.1239782 -0.557651E-08  0.442E-04    3.77      62.7  T
   7    -22.1239782 -0.358803E-09  0.140E-04    3.77     198.2  T
     SCC iter.                  ...        0 min,  0.007 sec
     gradient                   ...        0 min,  0.001 sec
 * total energy  :   -21.8113701 Eh     change       -0.1017122E-04 Eh
   gradient norm :     0.0017403 Eh/α   predicted    -0.1003016E-04 (  -1.39%)
   displ. norm   :     0.0273603 α      lambda       -0.1305099E-04
   maximum displ.:     0.0123337 α      in ANC's #6, #1, #8, ...

........................................................................
.............................. CYCLE   20 ..............................
........................................................................

 iter      E             dE          RMSdq      gap      omega  full diag
   1    -22.1252409 -0.221252E+02  0.270E-02    3.77       0.0  T
   2    -22.1252415 -0.595323E-06  0.153E-02    3.77       1.8  T
   3    -22.1252414  0.817137E-07  0.499E-03    3.77       5.6  T
   4    -22.1252414 -0.353969E-08  0.313E-03    3.77       8.9  T
   5    -22.1252415 -0.122575E-06  0.599E-04    3.77      46.3  T
   6    -22.1252415 -0.102120E-08  0.235E-04    3.77     117.8  T
     SCC iter.                  ...        0 min,  0.008 sec
     gradient                   ...        0 min,  0.001 sec
 * total energy  :   -21.8113756 Eh     change       -0.5495624E-05 Eh
   gradient norm :     0.0029207 Eh/α   predicted    -0.6526730E-05 (  18.76%)
   displ. norm   :     0.0738219 α      lambda       -0.1794717E-04
   maximum displ.:     0.0550074 α      in ANC's #3, #4, #21, ...
 * RMSD in coord.:     0.7286653 α      energy gain  -0.6509720E-02 Eh

generating ANC from exact Hessian ...
Using Lindh-Hessian (1995)
 Shifting diagonal of input Hessian by   9.308056264780103E-003
 Lowest  eigenvalues of input Hessian
    0.000000    0.000000    0.000000    0.000000    0.000000    0.000000
    0.010000    0.012546    0.014444    0.018897    0.024538    0.028070
    0.039521    0.052243    0.066078    0.069566    0.082319    0.096632
 Highest eigenvalues
    1.159416    1.221715    1.352978    1.534263    2.154418    2.538074
 

........................................................................
.............................. CYCLE   21 ..............................
........................................................................

 iter      E             dE          RMSdq      gap      omega  full diag
   1    -22.1248137 -0.221248E+02  0.355E-02    3.77       0.0  T
   2    -22.1248139 -0.158025E-06  0.211E-02    3.77       1.3  T
   3    -22.1248131  0.765581E-06  0.811E-03    3.77       3.4  T
   4    -22.1248139 -0.812241E-06  0.176E-03    3.77      15.8  T
   5    -22.1248140 -0.297277E-07  0.542E-04    3.77      51.2  T
   6    -22.1248140 -0.413575E-09  0.260E-04    3.77     106.7  T
     SCC iter.                  ...        0 min,  0.002 sec
     gradient                   ...        0 min,  0.001 sec
 * total energy  :   -21.8113839 Eh     change       -0.8296067E-05 Eh
   gradient norm :     0.0036487 Eh/α   predicted     0.0000000E+00 (-100.00%)
   displ. norm   :     0.0359241 α      lambda       -0.3082132E-04
   maximum displ.:     0.0255621 α      in ANC's #2, #1, #3, ...

........................................................................
.............................. CYCLE   22 ..............................
........................................................................

 iter      E             dE          RMSdq      gap      omega  full diag
   1    -22.1244488 -0.221244E+02  0.569E-02    3.76       0.0  T
   2    -22.1244490 -0.176561E-06  0.340E-02    3.77       1.0  T
   3    -22.1244469  0.213266E-05  0.132E-02    3.77       2.1  T
   4    -22.1244491 -0.228071E-05  0.152E-03    3.77      18.2  T
   5    -22.1244492 -0.175926E-07  0.566E-04    3.77      49.0  T
   6    -22.1244492 -0.155285E-08  0.280E-04    3.77      98.9  T
     SCC iter.                  ...        0 min,  0.004 sec
     gradient                   ...        0 min,  0.001 sec
 * total energy  :   -21.8113896 Eh     change       -0.5657878E-05 Eh
   gradient norm :     0.0015545 Eh/α   predicted    -0.1543095E-04 ( 172.73%)
   displ. norm   :     0.0453680 α      lambda       -0.3056136E-04
   maximum displ.:     0.0313217 α      in ANC's #1, #4, #11, ...

........................................................................
.............................. CYCLE   23 ..............................
........................................................................

 iter      E             dE          RMSdq      gap      omega  full diag
   1    -22.1242020 -0.221242E+02  0.545E-02    3.76       0.0  T
   2    -22.1242024 -0.388167E-06  0.325E-02    3.76       1.0  T
   3    -22.1242024 -0.255110E-07  0.238E-03    3.76      11.7  T
   4    -22.1242024 -0.241716E-07  0.101E-03    3.76      27.5  T
   5    -22.1242024 -0.166962E-08  0.679E-04    3.76      40.8  T
   6    -22.1242024 -0.417412E-08  0.297E-04    3.76      93.4  T
     SCC iter.                  ...        0 min,  0.002 sec
     gradient                   ...        0 min,  0.001 sec
 * total energy  :   -21.8114046 Eh     change       -0.1501752E-04 Eh
   gradient norm :     0.0029373 Eh/α   predicted    -0.1529518E-04 (   1.85%)
   displ. norm   :     0.0180568 α      lambda       -0.1257516E-04
   maximum displ.:     0.0145034 α      in ANC's #4, #2, #8, ...

........................................................................
.............................. CYCLE   24 ..............................
........................................................................

 iter      E             dE          RMSdq      gap      omega  full diag
   1    -22.1243574 -0.221244E+02  0.125E-02    3.76       0.0  T
   2    -22.1243574 -0.419107E-07  0.748E-03    3.76       3.7  T
   3    -22.1243574  0.477118E-07  0.232E-03    3.76      12.0  T
   4    -22.1243574 -0.504734E-07  0.854E-04    3.76      32.5  T
   5    -22.1243574 -0.682815E-08  0.341E-04    3.76      81.3  T
     SCC iter.                  ...        0 min,  0.002 sec
     gradient                   ...        0 min,  0.001 sec
 * total energy  :   -21.8114154 Eh     change       -0.1082435E-04 Eh
   gradient norm :     0.0016606 Eh/α   predicted    -0.6290068E-05 ( -41.89%)
   displ. norm   :     0.1498829 α      lambda       -0.4305977E-04
   maximum displ.:     0.1183759 α      in ANC's #4, #2, #8, ...

........................................................................
.............................. CYCLE   25 ..............................
........................................................................

 iter      E             dE          RMSdq      gap      omega  full diag
   1    -22.1243241 -0.221243E+02  0.102E-01    3.77       0.0  T
   2    -22.1243249 -0.728296E-06  0.604E-02    3.77       1.0  T
   3    -22.1243248  0.667099E-07  0.634E-03    3.77       4.4  T
   4    -22.1243250 -0.250210E-06  0.344E-03    3.77       8.1  T
   5    -22.1243251 -0.507817E-07  0.199E-03    3.77      13.9  T
   6    -22.1243251 -0.313974E-07  0.610E-04    3.77      45.5  T
   7    -22.1243251 -0.835573E-09  0.253E-04    3.77     109.4  T
     SCC iter.                  ...        0 min,  0.006 sec
     gradient                   ...        0 min,  0.001 sec
 * total energy  :   -21.8114475 Eh     change       -0.3205785E-04 Eh
   gradient norm :     0.0034443 Eh/α   predicted    -0.2174385E-04 ( -32.17%)
   displ. norm   :     0.0499928 α      lambda       -0.1856793E-04
   maximum displ.:     0.0399905 α      in ANC's #4, #8, #1, ...

........................................................................
.............................. CYCLE   26 ..............................
........................................................................

 iter      E             dE          RMSdq      gap      omega  full diag
   1    -22.1243574 -0.221244E+02  0.352E-02    3.76       0.0  T
   2    -22.1243574 -0.598212E-07  0.209E-02    3.76       1.3  T
   3    -22.1243575 -0.178070E-07  0.138E-03    3.76      20.1  T
   4    -22.1243575 -0.193543E-08  0.920E-04    3.76      30.1  T
   5    -22.1243575 -0.371869E-08  0.495E-04    3.76      56.0  T
     SCC iter.                  ...        0 min,  0.002 sec
     gradient                   ...        0 min,  0.008 sec
 * total energy  :   -21.8114645 Eh     change       -0.1698147E-04 Eh
   gradient norm :     0.0028706 Eh/α   predicted    -0.9306336E-05 ( -45.20%)
   displ. norm   :     0.2437255 α      lambda       -0.7669495E-04
   maximum displ.:     0.1931343 α      in ANC's #4, #8, #1, ...

........................................................................
.............................. CYCLE   27 ..............................
........................................................................

 iter      E             dE          RMSdq      gap      omega  full diag
   1    -22.1233434 -0.221233E+02  0.172E-01    3.73       0.0  T
   2    -22.1233448 -0.145218E-05  0.102E-01    3.74       1.0  T
   3    -22.1233447  0.167216E-06  0.937E-03    3.74       3.0  T
   4    -22.1233452 -0.578326E-06  0.565E-03    3.74       4.9  T
   5    -22.1233454 -0.192487E-06  0.242E-03    3.74      11.4  T
   6    -22.1233455 -0.377885E-07  0.821E-04    3.74      33.8  T
   7    -22.1233455 -0.114100E-08  0.287E-04    3.74      96.6  T
     SCC iter.                  ...        0 min,  0.006 sec
     gradient                   ...        0 min,  0.001 sec
 * total energy  :   -21.8115014 Eh     change       -0.3697717E-04 Eh
   gradient norm :     0.0034634 Eh/α   predicted    -0.4062746E-04 (   9.87%)
   displ. norm   :     0.0294554 α      lambda       -0.2102359E-04
   maximum displ.:     0.0223941 α      in ANC's #4, #2, #8, ...

........................................................................
.............................. CYCLE   28 ..............................
........................................................................

 iter      E             dE          RMSdq      gap      omega  full diag
   1    -22.1247429 -0.221247E+02  0.226E-02    3.74       0.0  T
   2    -22.1247433 -0.335524E-06  0.130E-02    3.74       2.1  T
   3    -22.1247433  0.101111E-07  0.336E-03    3.74       8.2  T
   4    -22.1247433 -0.234440E-09  0.186E-03    3.74      14.9  T
   5    -22.1247433 -0.388877E-07  0.592E-04    3.74      46.9  T
   6    -22.1247433 -0.760380E-09  0.264E-04    3.74     105.2  T
     SCC iter.                  ...        0 min,  0.003 sec
     gradient                   ...        0 min,  0.003 sec
 * total energy  :   -21.8115095 Eh     change       -0.8099922E-05 Eh
   gradient norm :     0.0008109 Eh/α   predicted    -0.1051935E-04 (  29.87%)
   displ. norm   :     0.0746668 α      lambda       -0.6710917E-05
   maximum displ.:     0.0619937 α      in ANC's #4, #2, #8, ...

........................................................................
.............................. CYCLE   29 ..............................
........................................................................

 iter      E             dE          RMSdq      gap      omega  full diag
   1    -22.1245856 -0.221246E+02  0.401E-02    3.74       0.0  T
   2    -22.1245857 -0.123529E-06  0.238E-02    3.74       1.2  T
   3    -22.1245857 -0.207135E-07  0.199E-03    3.74      13.9  T
   4    -22.1245857 -0.356671E-08  0.150E-03    3.74      18.5  T
   5    -22.1245857 -0.168119E-07  0.707E-04    3.74      39.2  T
   6    -22.1245857 -0.308447E-08  0.197E-04    3.74     141.1  T
     SCC iter.                  ...        0 min,  0.004 sec
     gradient                   ...        0 min,  0.004 sec
 * total energy  :   -21.8115163 Eh     change       -0.6795234E-05 Eh
   gradient norm :     0.0007108 Eh/α   predicted    -0.3364476E-05 ( -50.49%)
   displ. norm   :     0.0749512 α      lambda       -0.4741105E-05
   maximum displ.:     0.0580021 α      in ANC's #4, #2, #8, ...

........................................................................
.............................. CYCLE   30 ..............................
........................................................................

 iter      E             dE          RMSdq      gap      omega  full diag
   1    -22.1245814 -0.221246E+02  0.425E-02    3.74       0.0  T
   2    -22.1245814 -0.630361E-07  0.253E-02    3.74       1.1  T
   3    -22.1245807  0.678504E-06  0.745E-03    3.74       3.7  T
   4    -22.1245815 -0.744023E-06  0.108E-03    3.74      25.6  T
   5    -22.1245815 -0.205550E-08  0.450E-04    3.74      61.6  T
   6    -22.1245815 -0.310468E-09  0.143E-04    3.74     194.6  T
     SCC iter.                  ...        0 min,  0.006 sec
     gradient                   ...        0 min,  0.002 sec
 * total energy  :   -21.8115203 Eh     change       -0.3946815E-05 Eh
   gradient norm :     0.0009530 Eh/α   predicted    -0.2376879E-05 ( -39.78%)
   displ. norm   :     0.0226741 α      lambda       -0.2572105E-05
   maximum displ.:     0.0151370 α      in ANC's #3, #4, #2, ...

........................................................................
.............................. CYCLE   31 ..............................
........................................................................

 iter      E             dE          RMSdq      gap      omega  full diag
   1    -22.1249752 -0.221250E+02  0.128E-02    3.74       0.0  T
   2    -22.1249753 -0.479411E-07  0.762E-03    3.74       3.6  T
   3    -22.1249752  0.198158E-07  0.154E-03    3.74      18.0  T
   4    -22.1249752 -0.871838E-08  0.105E-03    3.74      26.5  T
   5    -22.1249753 -0.147760E-07  0.160E-04    3.74     172.9  T
   6    -22.1249753 -0.499227E-10  0.643E-05    3.74     431.2  T
     SCC iter.                  ...        0 min,  0.010 sec
     gradient                   ...        0 min,  0.002 sec
 * total energy  :   -21.8115226 Eh     change       -0.2375034E-05 Eh
   gradient norm :     0.0010056 Eh/α   predicted    -0.1287719E-05 ( -45.78%)
   displ. norm   :     0.0441963 α      lambda       -0.2668204E-05
   maximum displ.:     0.0277049 α      in ANC's #3, #4, #2, ...

........................................................................
.............................. CYCLE   32 ..............................
........................................................................

 iter      E             dE          RMSdq      gap      omega  full diag
   1    -22.1249322 -0.221249E+02  0.226E-02    3.74       0.0  T
   2    -22.1249322 -0.204807E-07  0.135E-02    3.74       2.1  T
   3    -22.1249320  0.246976E-06  0.453E-03    3.74       6.1  T
   4    -22.1249322 -0.262976E-06  0.712E-04    3.74      38.9  T
   5    -22.1249323 -0.458142E-08  0.263E-04    3.74     105.6  T
     SCC iter.                  ...        0 min,  0.002 sec
     gradient                   ...        0 min,  0.001 sec
 * total energy  :   -21.8115258 Eh     change       -0.3146364E-05 Eh
   gradient norm :     0.0006771 Eh/α   predicted    -0.1336847E-05 ( -57.51%)
   displ. norm   :     0.0911389 α      lambda       -0.3932965E-05
   maximum displ.:     0.0613841 α      in ANC's #3, #4, #2, ...

........................................................................
.............................. CYCLE   33 ..............................
........................................................................

 iter      E             dE          RMSdq      gap      omega  full diag
   1    -22.1246359 -0.221246E+02  0.461E-02    3.74       0.0  T
   2    -22.1246359 -0.666806E-07  0.274E-02    3.74       1.0  T
   3    -22.1246354  0.504462E-06  0.650E-03    3.74       4.3  T
   4    -22.1246360 -0.547125E-06  0.124E-03    3.74      22.3  T
   5    -22.1246360 -0.111086E-07  0.586E-04    3.74      47.3  T
   6    -22.1246360 -0.902538E-09  0.164E-04    3.74     169.2  T
     SCC iter.                  ...        0 min,  0.007 sec
     gradient                   ...        0 min,  0.003 sec
 * total energy  :   -21.8115289 Eh     change       -0.3093863E-05 Eh
   gradient norm :     0.0008242 Eh/α   predicted    -0.1972082E-05 ( -36.26%)
   displ. norm   :     0.0328879 α      lambda       -0.2271061E-05
   maximum displ.:     0.0229110 α      in ANC's #3, #1, #4, ...

........................................................................
.............................. CYCLE   34 ..............................
........................................................................

 iter      E             dE          RMSdq      gap      omega  full diag
   1    -22.1247697 -0.221248E+02  0.322E-02    3.74       0.0  T
   2    -22.1247697 -0.577839E-07  0.190E-02    3.74       1.5  T
   3    -22.1247697  0.372385E-07  0.247E-03    3.74      11.2  T
   4    -22.1247698 -0.583860E-07  0.108E-03    3.74      25.7  T
   5    -22.1247698 -0.463780E-08  0.505E-04    3.74      55.0  T
   6    -22.1247698 -0.179424E-08  0.166E-04    3.74     166.7  T
     SCC iter.                  ...        0 min,  0.002 sec
     gradient                   ...        0 min,  0.001 sec
 * total energy  :   -21.8115308 Eh     change       -0.1877519E-05 Eh
   gradient norm :     0.0007988 Eh/α   predicted    -0.1136527E-05 ( -39.47%)
   displ. norm   :     0.0314456 α      lambda       -0.1846264E-05
   maximum displ.:     0.0228296 α      in ANC's #3, #6, #2, ...

........................................................................
.............................. CYCLE   35 ..............................
........................................................................

 iter      E             dE          RMSdq      gap      omega  full diag
   1    -22.1247906 -0.221248E+02  0.260E-02    3.74       0.0  T
   2    -22.1247907 -0.309930E-07  0.154E-02    3.74       1.8  T
   3    -22.1247903  0.361947E-06  0.548E-03    3.74       5.1  T
   4    -22.1247907 -0.390875E-06  0.812E-04    3.74      34.1  T
   5    -22.1247907 -0.397328E-08  0.344E-04    3.74      80.7  T
     SCC iter.                  ...        0 min,  0.002 sec
     gradient                   ...        0 min,  0.005 sec
 * total energy  :   -21.8115330 Eh     change       -0.2223282E-05 Eh
   gradient norm :     0.0006601 Eh/α   predicted    -0.9241286E-06 ( -58.43%)
   displ. norm   :     0.0671448 α      lambda       -0.3262530E-05
   maximum displ.:     0.0416165 α      in ANC's #3, #4, #6, ...

........................................................................
.............................. CYCLE   36 ..............................
........................................................................

 iter      E             dE          RMSdq      gap      omega  full diag
   1    -22.1245036 -0.221245E+02  0.526E-02    3.75       0.0  T
   2    -22.1245037 -0.124373E-06  0.313E-02    3.75       1.0  T
   3    -22.1245019  0.182776E-05  0.123E-02    3.75       2.3  T
   4    -22.1245039 -0.196621E-05  0.156E-03    3.75      17.8  T
   5    -22.1245039 -0.149625E-07  0.643E-04    3.75      43.1  T
   6    -22.1245039 -0.714920E-09  0.251E-04    3.75     110.5  T
     SCC iter.                  ...        0 min,  0.006 sec
     gradient                   ...        0 min,  0.001 sec
 * total energy  :   -21.8115355 Eh     change       -0.2537800E-05 Eh
   gradient norm :     0.0005726 Eh/α   predicted    -0.1634062E-05 ( -35.61%)
   displ. norm   :     0.0147571 α      lambda       -0.5527668E-06
   maximum displ.:     0.0114264 α      in ANC's #3, #2, #4, ...

........................................................................
.............................. CYCLE   37 ..............................
........................................................................

 iter      E             dE          RMSdq      gap      omega  full diag
   1    -22.1247867 -0.221248E+02  0.100E-02    3.75       0.0  T
   2    -22.1247867 -0.867709E-08  0.596E-03    3.75       4.7  T
   3    -22.1247867  0.881682E-07  0.272E-03    3.75      10.2  T
   4    -22.1247868 -0.940478E-07  0.431E-04    3.75      64.3  T
   5    -22.1247868 -0.190138E-08  0.146E-04    3.75     189.7  T
     SCC iter.                  ...        0 min,  0.010 sec
     gradient                   ...        0 min,  0.001 sec
 * total energy  :   -21.8115359 Eh     change       -0.3516637E-06 Eh
   gradient norm :     0.0002964 Eh/α   predicted    -0.2748105E-06 ( -21.85%)
   displ. norm   :     0.0126216 α      lambda       -0.1975937E-06
   maximum displ.:     0.0099007 α      in ANC's #4, #2, #3, ...

........................................................................
.............................. CYCLE   38 ..............................
........................................................................

 iter      E             dE          RMSdq      gap      omega  full diag
   1    -22.1247397 -0.221247E+02  0.477E-03    3.75       0.0  T
   2    -22.1247397 -0.171923E-08  0.285E-03    3.75       9.7  T
   3    -22.1247397  0.393978E-08  0.617E-04    3.75      45.0  T
   4    -22.1247397 -0.447318E-08  0.168E-04    3.75     165.2  T
     SCC iter.                  ...        0 min,  0.004 sec
     gradient                   ...        0 min,  0.001 sec
 * total energy  :   -21.8115361 Eh     change       -0.1992348E-06 Eh
   gradient norm :     0.0001962 Eh/α   predicted    -0.9939440E-07 ( -50.11%)
   displ. norm   :     0.0114600 α      lambda       -0.1133222E-06
   maximum displ.:     0.0085428 α      in ANC's #4, #2, #3, ...

........................................................................
.............................. CYCLE   39 ..............................
........................................................................

 iter      E             dE          RMSdq      gap      omega  full diag
   1    -22.1246582 -0.221247E+02  0.526E-03    3.75       0.0  T
   2    -22.1246582 -0.161658E-08  0.313E-03    3.75       8.9  T
   3    -22.1246582  0.306585E-09  0.279E-04    3.75      99.5  T
   4    -22.1246582 -0.401016E-09  0.171E-04    3.75     162.4  T
     SCC iter.                  ...        0 min,  0.006 sec
     gradient                   ...        0 min,  0.001 sec
 * total energy  :   -21.8115362 Eh     change       -0.8032444E-07 Eh
   gradient norm :     0.0002005 Eh/α   predicted    -0.5648863E-07 ( -29.67%)
   displ. norm   :     0.0041324 α      lambda       -0.3120121E-07
   maximum displ.:     0.0032068 α      in ANC's #4, #2, #3, ...

........................................................................
.............................. CYCLE   40 ..............................
........................................................................

 iter      E             dE          RMSdq      gap      omega  full diag
   1    -22.1247166 -0.221247E+02  0.166E-03    3.75       0.0  T
   2    -22.1247166 -0.273364E-09  0.984E-04    3.75      28.2  T
   3    -22.1247166  0.345867E-09  0.196E-04    3.75     141.7  T
     SCC iter.                  ...        0 min,  0.001 sec
     gradient                   ...        0 min,  0.001 sec
 * total energy  :   -21.8115362 Eh     change       -0.2545787E-07 Eh
   gradient norm :     0.0000793 Eh/α   predicted    -0.1466365E-07 ( -42.40%)
   displ. norm   :     0.0019638 α      lambda       -0.9657461E-08
   maximum displ.:     0.0010818 α      in ANC's #2, #4, #3, ...

   *** GEOMETRY OPTIMIZATION CONVERGED AFTER 40 ITERATIONS ***

------------------------------------------------------------------------
 total energy gain   :        -0.0066703 Eh       -4.1857 kcal/mol
 total RMSD          :         0.8222653 a0        0.4351 Å
 total power (kW/mol):        -0.4378208 (step)  -39.7734 (real)
------------------------------------------------------------------------

 ANCopt (total)                0 d,  0 h,  0 min,  0.440 sec
 optimizer setup                ...        0 min,  0.000 sec (  0.029%)
 model hessian                  ...        0 min,  0.007 sec (  1.606%)
 ANC generation                 ...        0 min,  0.001 sec (  0.133%)
 coordinate transformation      ...        0 min,  0.001 sec (  0.114%)
 single point calculation       ...        0 min,  0.407 sec ( 92.354%)
 optimization log               ...        0 min,  0.003 sec (  0.779%)
 hessian update                 ...        0 min,  0.015 sec (  3.367%)
 rational function              ...        0 min,  0.005 sec (  1.101%)

================
 final structure:
================
13
 xtb: 6.7.1 (edcfbbe)
C           -1.61101776267728        1.28881595884018        0.46613312705399
C           -1.03927317916846        0.02117419676744       -0.08477638615815
O           -1.50544891296955       -0.60451540545242       -1.00654979717356
C            0.24761276852107       -0.48249908652041        0.58915459037554
O            0.52738310488907       -1.80306297569469        0.19710474677622
C            1.31062305912309        0.44593877485610        0.20022749503526
C            2.19253815646600        1.15987357350245       -0.18129978476415
H           -2.34182229437758        1.70302651630969       -0.22411492932334
H           -0.82039584488083        2.00921917241796        0.66317136487070
H           -2.10752791635157        1.06338402861714        1.41005275099262
H            0.13826852898811       -0.46698143168868        1.68226006595955
H            0.05843144090645       -1.94931666888289       -0.64103126676997
H            2.96974180933134        1.79881018002806       -0.48075718757466
 
 Bond Distances (Angstroems)
 ---------------------------
C1-C2=1.4958         C1-H8=1.0872         C1-H9=1.0876         C1-H10=1.0901        C2-C1=1.4958         C2-O3=1.2077         
C2-C4=1.5375         O3-C2=1.2077         C4-C2=1.5375         C4-O5=1.4057         C4-C6=1.4640         C4-H11=1.0987        
O5-C4=1.4057         O5-H12=0.9715        C6-C4=1.4640         C6-C7=1.1971         C7-C6=1.1971         C7-H13=1.0497        
H8-C1=1.0872         H9-C1=1.0876         H10-C1=1.0901        H11-C4=1.0987        H12-O5=0.9715        H13-C7=1.0497        
 C  H  Rav=1.0827 sigma=0.0170  Rmin=1.0497  Rmax=1.0987     5
 C  C  Rav=1.4236 sigma=0.1333  Rmin=1.1971  Rmax=1.5375     4
 O  H  Rav=0.9715 sigma=0.0000  Rmin=0.9715  Rmax=0.9715     1
 O  C  Rav=1.3067 sigma=0.0990  Rmin=1.2077  Rmax=1.4057     2
 
 selected bond angles (degree)
 --------------------
H8-C1-C2=110.24                H9-C1-C2=110.50                H9-C1-H8=110.57                H10-C1-C2=108.53               
H10-C1-H8=108.81               H10-C1-H9=108.13               O3-C2-C1=124.94                C4-C2-C1=115.86                
C4-C2-O3=119.20                O5-C4-C2=110.62                C6-C4-C2=106.47                C6-C4-O5=112.16                
H11-C4-C2=110.38               H11-C4-O5=108.09               H11-C4-C6=109.12               H12-O5-C4=106.62               
C7-C6-C4=176.22                H13-C7-C6=177.95               
 
 selected dihedral angles (degree)
 ---------------------------------
O3-C2-C1-H8=345.53            O3-C2-C1-H9=223.01            O3-C2-C1-H10=104.60           C4-C2-C1-H8=164.80            
C4-C2-C1-H9= 42.28            C4-C2-C1-H10=283.88           O5-C4-C2-C1=167.23            O5-C4-C2-O3=346.55            
C6-C4-C2-C1=289.34            C6-C4-C2-O3=108.65            H11-C4-C2-C1= 47.65           H11-C4-C2-O3=226.97           
H12-O5-C4-C2= 21.66           H12-O5-C4-C6=262.95           H12-O5-C4-H11=142.60          C7-C6-C4-C2=271.25            
C7-C6-C4-O5= 32.37            C7-C6-C4-H11=152.12           H13-C7-C6-C4=201.48           
           -------------------------------------------------
          |                Final Singlepoint                |
           -------------------------------------------------

          ...................................................
          :                      SETUP                      :
          :.................................................:
          :  # basis functions                  34          :
          :  # atomic orbitals                  34          :
          :  # shells                           20          :
          :  # electrons                        38          :
          :  max. iterations                    40          :
          :  Hamiltonian                  GFN2-xTB          :
          :  restarted?                      false          :
          :  GBSA solvation                   true          :
          :  PC potential                    false          :
          :  electronic temp.          300.0000000     K    :
          :  accuracy                    1.0000000          :
          :  -> integral cutoff          0.2500000E+02      :
          :  -> integral neglect         0.1000000E-07      :
          :  -> SCF convergence          0.1000000E-05 Eh   :
          :  -> wf. convergence          0.1000000E-03 e    :
          :  Broyden damping             0.4000000          :
          :  net charge                          0          :
          :  unpaired electrons                  0          :
          ...................................................

 iter      E             dE          RMSdq      gap      omega  full diag
   1    -22.1247166 -0.221247E+02  0.814E-05    3.75       0.0  T
   2    -22.1247166  0.429807E-10  0.965E-05    3.75     287.5  T
   3    -22.1247166 -0.121261E-09  0.171E-05    3.75    1622.4  T

   *** convergence criteria satisfied after 3 iterations ***

         #    Occupation            Energy/Eh            Energy/eV
      -------------------------------------------------------------
         1        2.0000           -0.7388430             -20.1049
       ...           ...                  ...                  ...
        13        2.0000           -0.5065001             -13.7826
        14        2.0000           -0.4947997             -13.4642
        15        2.0000           -0.4830712             -13.1450
        16        2.0000           -0.4533128             -12.3353
        17        2.0000           -0.4362310             -11.8704
        18        2.0000           -0.4285263             -11.6608
        19        2.0000           -0.4127757             -11.2322 (HOMO)
        20                         -0.2750626              -7.4848 (LUMO)
        21                         -0.1807590              -4.9187
        22                         -0.1699076              -4.6234
        23                          0.0342884               0.9330
        24                          0.0581687               1.5829
       ...                                ...                  ...
        34                          1.4005781              38.1117
      -------------------------------------------------------------
                  HL-Gap            0.1377130 Eh            3.7474 eV
             Fermi-level           -0.3439191 Eh           -9.3585 eV

 SCC (total)                   0 d,  0 h,  0 min,  0.023 sec
 SCC setup                      ...        0 min,  0.002 sec ( 10.220%)
 Dispersion                     ...        0 min,  0.003 sec ( 13.214%)
 classical contributions        ...        0 min,  0.005 sec ( 21.881%)
 integral evaluation            ...        0 min,  0.001 sec (  6.089%)
 iterations                     ...        0 min,  0.006 sec ( 26.642%)
 molecular gradient             ...        0 min,  0.005 sec ( 20.846%)
 printout                       ...        0 min,  0.000 sec (  0.839%)

         :::::::::::::::::::::::::::::::::::::::::::::::::::::
         ::                     SUMMARY                     ::
         :::::::::::::::::::::::::::::::::::::::::::::::::::::
         :: total energy             -21.811536185322 Eh    ::
         :: total w/o Gsasa/hb       -21.803320844754 Eh    ::
         :: gradient norm              0.000079853655 Eh/a0 ::
         :: HOMO-LUMO gap              3.747361657252 eV    ::
         ::.................................................::
         :: SCC energy               -22.124697471642 Eh    ::
         :: -> isotropic ES            0.053050858447 Eh    ::
         :: -> anisotropic ES         -0.000074764072 Eh    ::
         :: -> anisotropic XC          0.009638586780 Eh    ::
         :: -> dispersion             -0.007768637172 Eh    ::
         :: -> Gsolv                  -0.010950376111 Eh    ::
         ::    -> Gelec               -0.002735035543 Eh    ::
         ::    -> Gsasa               -0.010423483706 Eh    ::
         ::    -> Ghb                  0.000000000000 Eh    ::
         ::    -> Gshift               0.002208143139 Eh    ::
         :: repulsion energy           0.313161286320 Eh    ::
         :: add. restraining           0.000000000000 Eh    ::
         :: total charge               0.000000000000 e     ::
         :::::::::::::::::::::::::::::::::::::::::::::::::::::

           -------------------------------------------------
          |                Property Printout                |
           -------------------------------------------------

    * Orbital Energies and Occupations

         #    Occupation            Energy/Eh            Energy/eV
      -------------------------------------------------------------
         1        2.0000           -0.7388430             -20.1049
       ...           ...                  ...                  ...
         7        2.0000           -0.5845212             -15.9056
         8        2.0000           -0.5777054             -15.7202
         9        2.0000           -0.5569487             -15.1553
        10        2.0000           -0.5450666             -14.8320
        11        2.0000           -0.5230683             -14.2334
        12        2.0000           -0.5100911             -13.8803
        13        2.0000           -0.5065001             -13.7826
        14        2.0000           -0.4947997             -13.4642
        15        2.0000           -0.4830712             -13.1450
        16        2.0000           -0.4533128             -12.3353
        17        2.0000           -0.4362310             -11.8704
        18        2.0000           -0.4285263             -11.6608
        19        2.0000           -0.4127757             -11.2322 (HOMO)
        20                         -0.2750626              -7.4848 (LUMO)
        21                         -0.1807590              -4.9187
        22                         -0.1699076              -4.6234
        23                          0.0342884               0.9330
        24                          0.0581687               1.5829
        25                          0.0868354               2.3629
        26                          0.1438710               3.9149
        27                          0.1539430               4.1890
        28                          0.1731070               4.7105
        29                          0.1942739               5.2865
        30                          0.2082317               5.6663
       ...                                ...                  ...
        34                          1.4005781              38.1117
      -------------------------------------------------------------
                  HL-Gap            0.1377130 Eh            3.7474 eV
             Fermi-level           -0.3439191 Eh           -9.3585 eV

     #   Z          covCN         q      C6AA      α(0)
     1   6 C        3.753    -0.145    23.356     6.891
     2   6 C        2.823     0.235    23.087     7.873
     3   8 O        0.857    -0.368    21.054     6.152
     4   6 C        3.729     0.112    18.839     6.196
     5   8 O        1.656    -0.441    21.664     6.283
     6   6 C        1.976    -0.031    31.895     9.120
     7   6 C        1.909    -0.091    33.602     9.362
     8   1 H        0.925     0.080     1.977     2.199
     9   1 H        0.925     0.080     1.982     2.202
    10   1 H        0.925     0.090     1.882     2.145
    11   1 H        0.923     0.072     2.065     2.247
    12   1 H        0.804     0.310     0.693     1.307
    13   1 H        0.928     0.098     1.801     2.098

 Mol. C6AA /au·bohr⁶  :       1792.234669
 Mol. C8AA /au·bohr⁸  :      41927.880484
 Mol. α(0) /au        :         64.076779


Wiberg/Mayer (AO) data.
largest (>0.10) Wiberg bond orders for each atom

 ---------------------------------------------------------------------------
     #   Z sym  total        # sym  WBO       # sym  WBO       # sym  WBO
 ---------------------------------------------------------------------------
     1   6 C    3.991 --     2 C    1.022     8 H    0.978     9 H    0.963
                            10 H    0.945
     2   6 C    3.908 --     3 O    1.850     1 C    1.022     4 C    0.933
     3   8 O    2.088 --     2 C    1.850
     4   6 C    3.965 --     5 O    0.999     6 C    0.996     2 C    0.933
                            11 H    0.929
     5   8 O    1.968 --     4 C    0.999    12 H    0.872
     6   6 C    3.975 --     7 C    2.898     4 C    0.996
     7   6 C    3.971 --     6 C    2.898    13 H    0.966
     8   1 H    0.994 --     1 C    0.978
     9   1 H    0.994 --     1 C    0.963
    10   1 H    0.992 --     1 C    0.945
    11   1 H    0.995 --     4 C    0.929
    12   1 H    0.904 --     5 O    0.872
    13   1 H    0.990 --     7 C    0.966
 ---------------------------------------------------------------------------

Topologies differ in total number of bonds
Writing topology from bond orders to xtbtopo.mol

molecular dipole:
                 x           y           z       tot (Debye)
 q only:       -0.045       1.124       0.583
   full:       -0.111       1.270       0.580       3.561
molecular quadrupole (traceless):
                xx          xy          yy          xz          yz          zz
 q only:       -0.076      -0.265       0.223      -4.461       1.528      -0.147
  q+dip:        1.288       2.707      -1.062      -6.371       0.470      -0.226
   full:        0.362       1.386      -0.722      -6.014       0.987       0.361

           -------------------------------------------------
          |                Geometry Summary                 |
           -------------------------------------------------

      molecular mass/u    :       98.1001338
   center of mass at/Å    :       -0.0463900      -0.0520172       0.0138834
  moments of inertia/u·Å² :        0.1427259E+03   0.2140921E+03   0.2996516E+03
rotational constants/cm⁻¹ :        0.1181119E+00   0.7874010E-01   0.5625745E-01

 * 8 selected distances

     #   Z          #   Z                                           value/Å
     2   6 C        3   8 O                                       1.2076729
     4   6 C        5   8 O                                       1.4056543 (max)
     6   6 C        7   6 C                                       1.1970967
     1   6 C        8   1 H                                       1.0872388
     1   6 C        9   1 H                                       1.0876066
     1   6 C       10   1 H                                       1.0901038
     4   6 C       11   1 H                                       1.0986705
     5   8 O       12   1 H                                       0.9714824 (min)

 * 4 distinct bonds (by element types)

   Z      Z             #   av. dist./Å        max./Å        min./Å
   1 H    6 C           4     1.0909049     1.0986705     1.0872388
   6 C    6 C           1     1.1970967     1.1970967     1.1970967
   1 H    8 O           1     0.9714824     0.9714824     0.9714824
   6 C    8 O           2     1.3066636     1.4056543     1.2076729


optimized geometry written to: xtbopt.xyz


           -------------------------------------------------
          | TOTAL ENERGY              -21.811536185322 Eh   |
          | GRADIENT NORM               0.000079853655 Eh/α |
          | HOMO-LUMO GAP               3.747361657252 eV   |
           -------------------------------------------------

------------------------------------------------------------------------
 * finished run on 2024/08/07 at 21:04:44.914     
------------------------------------------------------------------------
 total:
 * wall-time:     0 d,  0 h,  0 min,  0.505 sec
 *  cpu-time:     0 d,  0 h,  0 min,  3.541 sec
 * ratio c/w:     7.006 speedup
 SCF:
 * wall-time:     0 d,  0 h,  0 min,  0.028 sec
 *  cpu-time:     0 d,  0 h,  0 min,  0.179 sec
 * ratio c/w:     6.352 speedup
 ANC optimizer:
 * wall-time:     0 d,  0 h,  0 min,  0.465 sec
 *  cpu-time:     0 d,  0 h,  0 min,  3.279 sec
 * ratio c/w:     7.054 speedup

