13
 energy: -21.811536185322 gnorm: 0.000079853655 xtb: 6.7.1 (edcfbbe)
C           -1.61101776267728        1.28881595884018        0.46613312705399
C           -1.03927317916846        0.02117419676744       -0.08477638615815
O           -1.50544891296955       -0.60451540545242       -1.00654979717356
C            0.24761276852107       -0.48249908652041        0.58915459037554
O            0.52738310488907       -1.80306297569469        0.19710474677622
C            1.31062305912309        0.44593877485610        0.20022749503526
C            2.19253815646600        1.15987357350245       -0.18129978476415
H           -2.34182229437758        1.70302651630969       -0.22411492932334
H           -0.82039584488083        2.00921917241796        0.66317136487070
H           -2.10752791635157        1.06338402861714        1.41005275099262
H            0.13826852898811       -0.46698143168868        1.68226006595955
H            0.05843144090645       -1.94931666888289       -0.64103126676997
H            2.96974180933134        1.79881018002806       -0.48075718757466
