13
 energy: -21.804865899961 gnorm: 0.067836443187 xtb: 6.7.1 (edcfbbe)
C           -1.81726462000000        1.18365237800000        0.57806457410000
C           -0.97932972710000        0.14305468140000       -0.07505298550000
O           -1.28937895190000       -0.36375879500000       -1.11552379240000
C            0.32059796830000       -0.31186915770000        0.56791021090000
O            0.42526164060000       -1.71876500650000        0.38214695080000
C            1.44192106770000        0.42113982660000        0.07147370890000
C            2.39291188660000        1.01821602070000       -0.38038416730000
H           -2.09770421500000        1.94707016650000       -0.14676853230000
H           -1.28872224850000        1.66847120450000        1.39831830290000
H           -2.73270960380000        0.74153647570000        0.97049692190000
H            0.26096440600000       -0.16337545230000        1.65793438900000
H            0.14967550430000       -1.91912491970000       -0.53768574920000
H            3.23288985060000        1.53761941090000       -0.78135504250000
13
 energy: -21.808088102962 gnorm: 0.019700531196 xtb: 6.7.1 (edcfbbe)
C           -1.79862938946237        1.19937003725768        0.58012647266666
C           -0.98322238801112        0.14449911047235       -0.09587063040497
O           -1.31259521003496       -0.38025597390487       -1.13463525013830
C            0.30912505787438       -0.32242696602471        0.59016449283322
O            0.44973177976339       -1.72022496376018        0.38644407713173
C            1.42524716077277        0.43443916174027        0.05982408995463
C            2.36148406857423        1.01958991956192       -0.39892307701469
H           -2.09859127466841        1.94699158256505       -0.15314991905053
H           -1.26631090408548        1.68096535224847        1.39866995433293
H           -2.70900099816856        0.74407851715594        0.96961682852218
H            0.25664608367069       -0.17636989234482        1.68002800032392
H            0.17296747786733       -1.90834264389734       -0.52716552522833
H            3.21226149370811        1.52155359203023       -0.76555472462846
13
 energy: -21.808794699092 gnorm: 0.009614582248 xtb: 6.7.1 (edcfbbe)
C           -1.78307303760601        1.21490734073358        0.57931102605659
C           -0.99611946364207        0.13730087415862       -0.10418322634918
O           -1.33002129734635       -0.37979587547471       -1.14646455070207
C            0.29126888024799       -0.34372669279919        0.59727808596468
O            0.47356479932894       -1.72879105299332        0.36397981394479
C            1.40185501128966        0.44891906280350        0.06972782223334
C            2.36401058796806        1.01954865221078       -0.35522496475206
H           -2.09371623217023        1.95862066110258       -0.15319600208998
H           -1.23579508379786        1.68482212254100        1.39169449565992
H           -2.69016135034894        0.75645403882267        0.97416586071343
H            0.23285826087075       -0.21097279202460        1.68482553491534
H            0.19972064707982       -1.89938017785029       -0.54901317099555
H            3.18472123592623        1.52596067186938       -0.76332593529918
13
 energy: -21.809192048685 gnorm: 0.010647502280 xtb: 6.7.1 (edcfbbe)
C           -1.75894222647505        1.23251959736128        0.57081244854022
C           -1.00118027311872        0.12461527474274       -0.10365712682007
O           -1.34025997780669       -0.39428346487727       -1.14119131348053
C            0.27701505886525       -0.37095008492908        0.61008751114080
O            0.48733396620756       -1.74408793616175        0.35813193177756
C            1.38554737718599        0.43798467084165        0.08061330401444
C            2.31720716555287        1.03726808168409       -0.37380118863258
H           -2.07680635418191        1.96786874846387       -0.16645794859336
H           -1.19041891109275        1.70143783274872        1.36658805038578
H           -2.66320421283088        0.78389476025191        0.98562414310316
H            0.21061333917660       -0.24289111437259        1.69444115095714
H            0.21888115401812       -1.90320478123297       -0.55645502116785
H            3.15332685229959        1.55369524857939       -0.73516115192461
13
 energy: -21.809636335837 gnorm: 0.010714181391 xtb: 6.7.1 (edcfbbe)
C           -1.73369709874425        1.24485690982899        0.56187201774540
C           -1.00369878604646        0.11314996611213       -0.10584314209746
O           -1.35003332770715       -0.40565334813828       -1.13868352777263
C            0.26297724459039       -0.39872593771823        0.61299063515142
O            0.49175240242720       -1.75976749611206        0.33354920229849
C            1.36703241342037        0.43481296231664        0.10682099979257
C            2.28923502710097        1.05159270889890       -0.34376790061491
H           -2.05848612403032        1.97296607615021       -0.17854071157903
H           -1.13780596767494        1.71870324675919        1.33487130967792
H           -2.63332202891178        0.81397917508635        1.00894446842035
H            0.18353112192775       -0.28864955777714        1.69754433578415
H            0.23075453044680       -1.90294225109907       -0.58698815628359
H            3.11087355100141        1.58954437879234       -0.71319474122249
13
 energy: -21.810306681428 gnorm: 0.011317184837 xtb: 6.7.1 (edcfbbe)
C           -1.68181037830476        1.26367182552407        0.54269534787937
C           -1.00551033585218        0.08736134882618       -0.10514651505582
O           -1.36997640011679       -0.43561797215124       -1.12809686586521
C            0.24221146217551       -0.44829496322188        0.61492582529943
O            0.49211244327278       -1.78934213751399        0.28536499758019
C            1.33094258653601        0.43257110566609        0.15940271262164
C            2.23048267745845        1.08606367725086       -0.28871955144128
H           -2.02160957137361        1.96993359448526       -0.21175124798685
H           -1.03111961200666        1.75992720284738        1.26266662730776
H           -2.56913621665340        0.87858287927912        1.06325857254807
H            0.13890613840466       -0.38042553112202        1.70338215579590
H            0.23609236803266       -1.90506484891070       -0.64383766135879
H            3.02752779622729        1.66450065214083       -0.66456960802403
13
 energy: -21.810608625316 gnorm: 0.009387186551 xtb: 6.7.1 (edcfbbe)
C           -1.65090387851403        1.27257774847121        0.53142369883990
C           -1.00453605311158        0.07461769030528       -0.10197393940672
O           -1.38323709046521       -0.45205965935709       -1.11900655062056
C            0.23562820966186       -0.47258503659753        0.61425485526292
O            0.49274809665970       -1.80418659889648        0.25772980354340
C            1.31325026514066        0.43195501461468        0.18996868566050
C            2.19513381627744        1.10699073317649       -0.26015940468836
H           -2.00242741962446        1.96233418818247       -0.23312099636486
H           -0.97486038535389        1.78202080113191        1.21895329550098
H           -2.52612259311789        0.91634893109355        1.09013326759898
H            0.12153409289335       -0.43326344058718        1.70496545331619
H            0.22561396042660       -1.90771542909816       -0.67030374890181
H            2.97729193692741        1.70683189066079       -0.63328963044009
13
 energy: -21.810821846402 gnorm: 0.004730808880 xtb: 6.7.1 (edcfbbe)
C           -1.62879944509903        1.27777741163508        0.52324648007540
C           -1.00337975357869        0.06660391139743       -0.09694340619646
O           -1.39610893648627       -0.46520581629073       -1.10829738039040
C            0.23646055586925       -0.48608363913696        0.61356911633262
O            0.49623220412851       -1.81278073257194        0.23898572496807
C            1.30526814657862        0.43056046671849        0.21033590056824
C            2.16922594023755        1.12314781085385       -0.24640432543983
H           -1.99169558282623        1.95154470686292       -0.25044721014463
H           -0.93917939228574        1.79597336467370        1.18520308925285
H           -2.49107882558018        0.94399156322779        1.10406822758090
H            0.11769071396461       -0.46786837429511        1.70448495988650
H            0.20285346450861       -1.91124157396044       -0.68087728002442
H            2.94162386836893        1.73744773398586       -0.60734910716833
13
 energy: -21.810906732829 gnorm: 0.006091126115 xtb: 6.7.1 (edcfbbe)
C           -1.60677309455402        1.28602869435842        0.51387954631865
C           -1.00759593416299        0.05301400513704       -0.09234823077508
O           -1.41569781833388       -0.48885683400838       -1.09393561733925
C            0.23481856375362       -0.50252807766645        0.61485916861189
O            0.50684814646165       -1.82282971349180        0.21929402947878
C            1.29467909741611        0.43128831682058        0.22602934145433
C            2.14424254402718        1.14030978093887       -0.23286073982066
H           -1.98522465609356        1.93924820362999       -0.27204701819200
H           -0.89210927195459        1.81766161789120        1.14227555760592
H           -2.45613226893090        0.97637893495332        1.12911447793642
H            0.11086772182441       -0.50101485277622        1.70493116359694
H            0.18263182756379       -1.91573286434085       -0.69077879643836
H            2.90855810078311        1.77089962165420       -0.57883809313706
13
 energy: -21.810996308260 gnorm: 0.006120676821 xtb: 6.7.1 (edcfbbe)
C           -1.60364086696090        1.28502788290352        0.50979271767762
C           -1.00989848264908        0.04864082902646       -0.08838742403279
O           -1.42635417729803       -0.50269095866168       -1.08134505834522
C            0.24149914823562       -0.50065122148553        0.61288948274688
O            0.51289689240203       -1.82075322004009        0.21293714071617
C            1.29922823385259        0.43235751961415        0.22538350508844
C            2.14595238506913        1.14411116375054       -0.22942539223143
H           -1.99222558289846        1.92720174166137       -0.27935774650733
H           -0.88208930959943        1.82233890164075        1.12044810629561
H           -2.44311317296737        0.98598895295530        1.13768711938322
H            0.11914282510724       -0.50216181292298        1.70163641679239
H            0.15309825371926       -1.91867300849384       -0.68402596773951
H            2.90461681178731        1.78313006315194       -0.56865811054357
13
 energy: -21.811080279042 gnorm: 0.005561137604 xtb: 6.7.1 (edcfbbe)
C           -1.59799526196258        1.28595530215180        0.50302867105781
C           -1.01302386862412        0.04150902500906       -0.08486478703995
O           -1.44153468517238       -0.52612567245418       -1.06300276233783
C            0.24738627028365       -0.50179495234045        0.61007227363529
O            0.51716740154289       -1.82038047206560        0.20521644474491
C            1.30557550930268        0.43000121742979        0.22389113424598
C            2.14724768558378        1.15243431080532       -0.22734961147777
H           -2.00338552844453        1.91312022180711       -0.28914763511125
H           -0.86350279761960        1.83389676848061        1.08717175531236
H           -2.42365192407556        0.99972558405450        1.15490259199368
H            0.12614469536149       -0.50413300976416        1.69850846742753
H            0.11778547369371       -1.92630679959143       -0.67552597751774
H            2.90089998793048        1.80596530957754       -0.55332577563257
13
 energy: -21.811178997714 gnorm: 0.008043253491 xtb: 6.7.1 (edcfbbe)
C           -1.59687610854978        1.28624791600886        0.49451412660726
C           -1.02171316725328        0.02984000913967       -0.07807677600370
O           -1.46788545713879       -0.56649131955289       -1.03041833311175
C            0.25577634021545       -0.49653417812787        0.60326018948685
O            0.52856512709555       -1.81375430008549        0.19706920486566
C            1.30869667738958        0.44005652847054        0.20657398659810
C            2.16313204952708        1.15878191355920       -0.22140370518804
H           -2.03227115835445        1.89031375133928       -0.30040349546816
H           -0.84422340237326        1.85327225045590        1.03833710927755
H           -2.39943727834791        1.01238703083347        1.18326772475686
H            0.14089719636504       -0.49225919015385        1.69286778330500
H            0.07294060970428       -1.93974116279572       -0.65640609717068
H            2.91151152952035        1.82174758400878       -0.53960692865461
13
 energy: -21.811231795987 gnorm: 0.004159115608 xtb: 6.7.1 (edcfbbe)
C           -1.60548071737021        1.28522376165102        0.49382405961605
C           -1.02555295364732        0.02979598297940       -0.07682837663553
O           -1.47772064939034       -0.57867224153304       -1.01673621083074
C            0.25835685722668       -0.48799700170028        0.59771020099996
O            0.52795937846819       -1.80750129307553        0.20259191751513
C            1.31384568471254        0.44325264134656        0.18806214749097
C            2.18228830221181        1.15602491582813       -0.22637578494076
H           -2.05410472974566        1.88485994198981       -0.29489064476227
H           -0.85508822094022        1.85784387817875        1.02912226668998
H           -2.39860683450320        1.00465568251906        1.18760438313562
H            0.15163572213263       -0.46938245233528        1.68990847248102
H            0.06745737953031       -1.94967012065292       -0.63978894608080
H            2.93412373911464        1.81543313790419       -0.54462869537837
13
 energy: -21.811268304235 gnorm: 0.005189609594 xtb: 6.7.1 (edcfbbe)
C           -1.59971134007137        1.28717006452340        0.48791775262664
C           -1.02949793389298        0.02269606522531       -0.07310391649028
O           -1.49687258302172       -0.59968606395518       -0.99832995246928
C            0.25973544163808       -0.48853092292999        0.59280211633335
O            0.53413299403092       -1.80666708807120        0.19733186974612
C            1.31058276864017        0.44730428167237        0.18430413534150
C            2.18160192442920        1.16293286843279       -0.22163001041230
H           -2.06894364273211        1.87008312773164       -0.30437731266638
H           -0.83773933568981        1.87541771520759        0.99671595243852
H           -2.37667458354673        1.01430420556460        1.20684443308447
H            0.15888069427980       -0.46949390922126        1.68674240731094
H            0.04980922707753       -1.95694988977543       -0.63226234538846
H            2.93380932665885        1.82528637869522       -0.53338034015460
13
 energy: -21.811296683431 gnorm: 0.003036351380 xtb: 6.7.1 (edcfbbe)
C           -1.59739985201225        1.28756284249461        0.48605114511536
C           -1.03041865940991        0.01951676260636       -0.07073516074313
O           -1.50166909379093       -0.60147608933494       -0.99384208449160
C            0.25905398731042       -0.48902339083675        0.59177641677110
O            0.53847561791705       -1.80712218344637        0.19535930095780
C            1.30643119749778        0.45030810148867        0.18498937183729
C            2.17749162475610        1.16544533621223       -0.21982956353605
H           -2.07015675007433        1.86585567494304       -0.30622274809110
H           -0.83548565908310        1.87973971020749        0.98877282757984
H           -2.37019264770205        1.01804927012970        1.20949469419945
H            0.16172471146925       -0.47150310114255        1.68677251709858
H            0.04825427187742       -1.95703428800239       -0.63140641831105
H            2.93300420904439        1.82354818778075       -0.53160550908630
13
 energy: -21.811318842556 gnorm: 0.002447258597 xtb: 6.7.1 (edcfbbe)
C           -1.59633826092460        1.28781316445784        0.48319159169367
C           -1.03126269815319        0.01777193610788       -0.06905370222199
O           -1.51191568026133       -0.60886359471111       -0.98399572378624
C            0.25951026579522       -0.48703593806351        0.58961204968990
O            0.54071200151697       -1.80552984603330        0.19321615797757
C            1.30642916658569        0.45212118086846        0.18455340544307
C            2.17739517150396        1.16785881228182       -0.21779018262477
H           -2.08149891632000        1.85673656462538       -0.30794806939005
H           -0.83208081210373        1.88690111959401        0.97261672093356
H           -2.35883934465719        1.02126272651174        1.21783829824526
H            0.16551652288142       -0.46885716628013        1.68535206887965
H            0.04494164799467       -1.95804946768372       -0.62820373073673
H            2.93654389394194        1.82173734142449       -0.52981409480273
13
 energy: -21.811339588790 gnorm: 0.002666202631 xtb: 6.7.1 (edcfbbe)
C           -1.59447120376795        1.28891184714845        0.47809579593512
C           -1.03448863749578        0.01243255067162       -0.06496195780497
O           -1.52698599103045       -0.62421740410704       -0.96655699596819
C            0.26195924578829       -0.48548709378214        0.58657526019262
O            0.54537311939378       -1.80363365043604        0.18809469375917
C            1.30872944135054        0.45432598051342        0.18230591355196
C            2.17907031793268        1.17392859676837       -0.21469434975485
H           -2.09955965056197        1.84195860433999       -0.31151062538534
H           -0.82350104063341        1.89903964232874        0.94256078496829
H           -2.33997690239063        1.03030244925730        1.23279153216941
H            0.17057729741171       -0.46712529900420        1.68288312499221
H            0.03106106579079       -1.96239043110321       -0.62173167370363
H            2.94132589601220        1.82582104050458       -0.52427671365168
13
 energy: -21.811359953238 gnorm: 0.003077226497 xtb: 6.7.1 (edcfbbe)
C           -1.59341075509293        1.29044847187237        0.47398212893022
C           -1.03725974411446        0.00923808356671       -0.06194663143056
O           -1.53816275867251       -0.63553789043929       -0.95181120627615
C            0.26335759915250       -0.48498822927660        0.58472092684762
O            0.54765571399486       -1.80219261177900        0.18312249718797
C            1.31203459480677        0.45451498896175        0.18314829860706
C            2.17863416401339        1.17978479726152       -0.21125906315168
H           -2.11875222493484        1.82749177802196       -0.31249806250417
H           -0.81512945415082        1.91066882972985        0.91198260646302
H           -2.32067019509269        1.04038745059436        1.24908172631488
H            0.17004342576733       -0.46919006943675        1.68037810557856
H            0.02592067114794       -1.96437785478641       -0.61884355044639
H            2.94485192097526        1.82761908880935       -0.52048298682031
13
 energy: -21.811370124453 gnorm: 0.001742220387 xtb: 6.7.1 (edcfbbe)
C           -1.59273760683037        1.29161574013971        0.47042506698464
C           -1.03983917263375        0.00656554476278       -0.05937920155638
O           -1.54785897800200       -0.64937078360767       -0.93793039965095
C            0.26619170159414       -0.48391004241674        0.58274810507024
O            0.55139613811105       -1.80002285199859        0.17900967148529
C            1.31451482027406        0.45602851140193        0.18080840241604
C            2.18081268351328        1.18470144243614       -0.20833646617064
H           -2.13583779384043        1.81508310239409       -0.31364244103741
H           -0.80890843760872        1.92084302073901        0.88477756683874
H           -2.30349434429421        1.04865254660602        1.26279192731711
H            0.17243160815318       -0.46974457081656        1.67812679654933
H            0.01373404206305       -1.96754817464658       -0.61371091915428
H            2.94870829730051        1.83097334810627       -0.51611331979169
13
 energy: -21.811375620078 gnorm: 0.002921910016 xtb: 6.7.1 (edcfbbe)
C           -1.59342506585136        1.29186885205639        0.47114884942070
C           -1.04001207352799        0.00783115557347       -0.06007601164252
O           -1.54235703248662       -0.64658067736604       -0.94115116274475
C            0.26582394529063       -0.48504924593917        0.58412425092457
O            0.55044930186034       -1.79994899834688        0.17847261720249
C            1.31400377818139        0.45475393940073        0.18294640691201
C            2.17936115843872        1.18459992401566       -0.20618850206454
H           -2.13872171175420        1.81449803990860       -0.31000378970107
H           -0.80973145770358        1.92129064051092        0.87998851157644
H           -2.29946398731123        1.05063706573585        1.26538605189670
H            0.16897689844510       -0.47438432234852        1.67890967402592
H            0.01723855625682       -1.96521395912639       -0.61684733328087
H            2.94697064796178        1.82956441902520       -0.51713477322504
13
 energy: -21.811383916145 gnorm: 0.003648818557 xtb: 6.7.1 (edcfbbe)
C           -1.59138119469354        1.29294479646538        0.46863494274022
C           -1.04228711329786        0.00549686625396       -0.05902965186539
O           -1.54637591172252       -0.65224990960935       -0.93618771786294
C            0.26527138389347       -0.48633577438621        0.58333360361949
O            0.55172863225390       -1.79959466673549        0.17531794407815
C            1.31150269648388        0.45530345416792        0.18401518157363
C            2.17703137673239        1.18688212625615       -0.20133244558178
H           -2.15058373736401        1.80631893084130       -0.31051511222092
H           -0.80134045615544        1.93052558502393        0.85795013206573
H           -2.28374031089205        1.05722064508162        1.27920158528584
H            0.16831468875919       -0.47821379437429        1.67843642612619
H            0.01623433261041       -1.96589303180834       -0.61727322178565
H            2.94473857119198        1.83146160592323       -0.51297687687254
13
 energy: -21.811389574023 gnorm: 0.001554852161 xtb: 6.7.1 (edcfbbe)
C           -1.59151527032856        1.29275410270228        0.46844903157400
C           -1.04234297629268        0.00582410465383       -0.06016294875544
O           -1.54724323362469       -0.65090570625739       -0.93918774674786
C            0.26444059563889       -0.48587381694998        0.58330915678194
O            0.54968917606247       -1.80059770741390        0.17792304994320
C            1.31144000816843        0.45378931548222        0.18094936717189
C            2.18469638366049        1.17717286579560       -0.20267716752462
H           -2.15418027988429        1.80572767997154       -0.30827584662419
H           -0.80118884579067        1.93057699033424        0.85490573076075
H           -2.27986224959747        1.05695268110072        1.28131038300068
H            0.16948767140215       -0.47422997386457        1.67882981873692
H            0.01592217181658       -1.96667183803115       -0.61690590005133
H            2.93976980656916        1.83934813557639       -0.50889213896589
13
 energy: -21.811404591545 gnorm: 0.002937290682 xtb: 6.7.1 (edcfbbe)
C           -1.59260412376754        1.29132326897914        0.46870137126649
C           -1.04206852950006        0.00583998384132       -0.06176947939070
O           -1.54572975632093       -0.64775491996144       -0.94580044441364
C            0.26331650653822       -0.48526088338228        0.58361973260978
O            0.54957152762396       -1.80110471108714        0.18049950445045
C            1.30918184265287        0.45690925300386        0.18324776492874
C            2.17823502333921        1.18482628892290       -0.20118805362545
H           -2.16149293327490        1.80310926797447       -0.30408961228617
H           -0.80206401818093        1.93047852195454        0.85020669246881
H           -2.27406039611773        1.05454513022624        1.28567612161016
H            0.16941790147745       -0.47066208608202        1.67951058127591
H            0.01971020584685       -1.96640845806814       -0.61854359113199
H            2.94769970748332        1.82802617677837       -0.51049579846236
13
 energy: -21.811415415898 gnorm: 0.001660687254 xtb: 6.7.1 (edcfbbe)
C           -1.59332489826676        1.29139410656144        0.46894850684015
C           -1.04141272740959        0.00695804810659       -0.06267087646791
O           -1.54325832321401       -0.64543000369078       -0.94778775625484
C            0.26260114701479       -0.48514654245221        0.58365005282475
O            0.54827022830403       -1.80145928440201        0.18206968382284
C            1.31008060534499        0.45550835148468        0.18349386629045
C            2.17930638910929        1.18288912634161       -0.20152506467701
H           -2.16576313855702        1.80123251529075       -0.30261042657655
H           -0.80245961420578        1.93267421772403        0.84732719789699
H           -2.27158871928867        1.05323630654279        1.28871723155929
H            0.16792914591150       -0.47001653976310        1.67931915131891
H            0.02137782717272       -1.96596671626899       -0.61875946945318
H            2.94735503588430        1.82799324762500       -0.51059730782383
13
 energy: -21.811447473751 gnorm: 0.003444597332 xtb: 6.7.1 (edcfbbe)
C           -1.59920434528078        1.29055008939860        0.47058860196862
C           -1.03780815101369        0.01360722968011       -0.07023300409292
O           -1.52579042035926       -0.62810792216475       -0.96843565666113
C            0.25722971725946       -0.48315492906086        0.58564279600744
O            0.53863767326257       -1.80320218403480        0.19476203328683
C            1.31247653835843        0.44926066034945        0.18343798977465
C            2.18710690193736        1.16892029536569       -0.20403402672105
H           -2.20304327754898        1.78513906785905       -0.28804419333178
H           -0.80691216068701        1.94873954903978        0.82185164703795
H           -2.24764095169084        1.04336705009614        1.31436322585285
H            0.15901181765453       -0.46247504049301        1.68030592342818
H            0.03520411286654       -1.96157211858781       -0.62136761512947
H            2.94984550304147        1.82279508565224       -0.50926293212013
13
 energy: -21.811464455220 gnorm: 0.002870873959 xtb: 6.7.1 (edcfbbe)
C           -1.60134578986853        1.28998244821946        0.47105935266623
C           -1.03692208880586        0.01556303626058       -0.07270383028376
O           -1.51991602478987       -0.62219554593473       -0.97673329933477
C            0.25590455632742       -0.48253176559700        0.58723752780333
O            0.53614481626048       -1.80348777373877        0.19853150816586
C            1.31270242999275        0.44808400264228        0.18469327157136
C            2.18714293440892        1.16703632767075       -0.20440066470442
H           -2.21515970687952        1.77990022345335       -0.28234459565833
H           -0.80969155531444        1.95320371830589        0.81363658429662
H           -2.23927769674791        1.04104126284364        1.32200211087280
H            0.15665119243120       -0.46054499685152        1.68163366129780
H            0.04054903864481       -1.95983478941102       -0.62273069044545
H            2.95233085214034        1.81765068523691       -0.51030614694723
13
 energy: -21.811501432390 gnorm: 0.003463612758 xtb: 6.7.1 (edcfbbe)
C           -1.61205133415589        1.28730341970155        0.47348986779276
C           -1.03299564178088        0.02542043999731       -0.08416823651172
O           -1.49176775193867       -0.59373312373769       -1.01535888222166
C            0.24979339855979       -0.47951851343567        0.59494501422594
O            0.52451381492103       -1.80477672804614        0.21595301058234
C            1.31170116416341        0.44409121977549        0.18957726872512
C            2.18818810913046        1.15719585853910       -0.20607572811366
H           -2.27449161550816        1.75336168348458       -0.25478581328376
H           -0.82312520058626        1.97514803352213        0.77232720602443
H           -2.19780813487381        1.03021315309137        1.35957103029248
H            0.14499509528380       -0.45159544749814        1.68797243221865
H            0.06687295846174       -1.95172782419733       -0.62968627797512
H            2.96528809612326        1.79248466190329       -0.51418610245576
13
 energy: -21.811509532311 gnorm: 0.000810941422 xtb: 6.7.1 (edcfbbe)
C           -1.61114246155031        1.28736124456529        0.47332492429261
C           -1.03390685501743        0.02426859929825       -0.08230246853184
O           -1.49457969675972       -0.59674923472509       -1.01042832156343
C            0.25105849615364       -0.47996300891252        0.59454960073406
O            0.52629559357752       -1.80412319528858        0.21247746079607
C            1.31146932161630        0.44512636354901        0.19000378517442
C            2.18703627150194        1.15933077068575       -0.20539352962355