      -----------------------------------------------------------      
     |                   =====================                   |     
     |                           x T B                           |     
     |                   =====================                   |     
     |                         S. Grimme                         |     
     |          Mulliken Center for Theoretical Chemistry        |     
     |                    University of Bonn                     |     
      -----------------------------------------------------------      

   * xtb version 6.5.1 (fef0646) compiled by 'conda@b96dff2e9fd6' on 2023-01-04

   xtb is free software: you can redistribute it and/or modify it under
   the terms of the GNU Lesser General Public License as published by
   the Free Software Foundation, either version 3 of the License, or
   (at your option) any later version.
   
   xtb is distributed in the hope that it will be useful,
   but WITHOUT ANY WARRANTY; without even the implied warranty of
   MERCHANTABILITY or FITNESS FOR A PARTICULAR PURPOSE.  See the
   GNU Lesser General Public License for more details.
   
   Cite this work as:
   * C. Bannwarth, E. Caldeweyher, S. Ehlert, A. Hansen, P. Pracht,
     J. Seibert, S. Spicher, S. Grimme, WIREs Comput. Mol. Sci., 2020, 11,
     e01493. DOI: 10.1002/wcms.1493
   
   for GFN2-xTB:
   * C. Bannwarth, S. Ehlert and S. Grimme., J. Chem. Theory Comput., 2019,
     15, 1652-1671. DOI: 10.1021/acs.jctc.8b01176
   for GFN1-xTB:
   * S. Grimme, C. Bannwarth, P. Shushkov, J. Chem. Theory Comput., 2017,
     13, 1989-2009. DOI: 10.1021/acs.jctc.7b00118
   for GFN0-xTB:
   * P. Pracht, E. Caldeweyher, S. Ehlert, S. Grimme, ChemRxiv, 2019, preprint.
     DOI: 10.26434/chemrxiv.8326202.v1
   for GFN-FF:
   * S. Spicher and S. Grimme, Angew. Chem. Int. Ed., 2020, 59, 15665-15673.
     DOI: 10.1002/anie.202004239
   
   for ALPB and GBSA implicit solvation:
   * S. Ehlert, M. Stahn, S. Spicher, S. Grimme, J. Chem. Theory Comput.,
     2021, 17, 4250-4261. DOI: 10.1021/acs.jctc.1c00471
   
   for DFT-D4:
   * E. Caldeweyher, C. Bannwarth and S. Grimme, J. Chem. Phys., 2017,
     147, 034112. DOI: 10.1063/1.4993215
   * E. Caldeweyher, S. Ehlert, A. Hansen, H. Neugebauer, S. Spicher,
     C. Bannwarth and S. Grimme, J. Chem. Phys., 2019, 150, 154122.
     DOI: 10.1063/1.5090222
   * E. Caldeweyher, J.-M. Mewes, S. Ehlert and S. Grimme, Phys. Chem. Chem. Phys.
     2020, 22, 8499-8512. DOI: 10.1039/D0CP00502A
   
   for sTDA-xTB:
   * S. Grimme and C. Bannwarth, J. Chem. Phys., 2016, 145, 054103.
     DOI: 10.1063/1.4959605
   
   in the mass-spec context:
   * V. Asgeirsson, C. Bauer and S. Grimme, Chem. Sci., 2017, 8, 4879.
     DOI: 10.1039/c7sc00601b
   * J. Koopman and S. Grimme, ACS Omega 2019, 4, 12, 15120-15133.
     DOI: 10.1021/acsomega.9b02011
   
   for metadynamics refer to:
   * S. Grimme, J. Chem. Theory Comput., 2019, 155, 2847-2862
     DOI: 10.1021/acs.jctc.9b00143
   
   for SPH calculations refer to:
   * S. Spicher and S. Grimme, J. Chem. Theory Comput., 2021, 17, 1701-1714
     DOI: 10.1021/acs.jctc.0c01306
   
   with help from (in alphabetical order)
   P. Atkinson, C. Bannwarth, F. Bohle, G. Brandenburg, E. Caldeweyher
   M. Checinski, S. Dohm, S. Ehlert, S. Ehrlich, I. Gerasimov, C. Hölzer
   A. Katbashev, J. Koopman, C. Lavigne, S. Lehtola, F. März, M. Müller,
   F. Musil, H. Neugebauer, J. Pisarek, C. Plett, P. Pracht, F. Pultar,
   J. Seibert, P. Shushkov, S. Spicher, M. Stahn, M. Steiner, T. Strunk,
   J. Stückrath, T. Rose, and J. Unsleber
   
 * started run on 2024/06/14 at 02:58:07.311     

           -------------------------------------------------
          |                Calculation Setup                |
           -------------------------------------------------

          program call               : xtb crest_best.xyz --opt normal -c 0 --iterations 4000
          coordinate file            : crest_best.xyz
          omp threads                :                     8

   ID    Z sym.   atoms
    1    6 C      1, 3, 4, 6-9, 11, 12, 14-20, 22-24, 28
    2    7 N      2, 13, 25, 27
    3   16 S      5, 26
    4   34 Se     10
    5    8 O      21
    6    1 H      29-38

           -------------------------------------------------
          |                 G F N 2 - x T B                 |
           -------------------------------------------------

        Reference                      10.1021/acs.jctc.8b01176
      * Hamiltonian:
        H0-scaling (s, p, d)           1.850000    2.230000    2.230000
        zeta-weighting                 0.500000
      * Dispersion:
        s8                             2.700000
        a1                             0.520000
        a2                             5.000000
        s9                             5.000000
      * Repulsion:
        kExp                           1.500000    1.000000
        rExp                           1.000000
      * Coulomb:
        alpha                          2.000000
        third order                    shell-resolved
        anisotropic                    true
        a3                             3.000000
        a5                             4.000000
        cn-shift                       1.200000
        cn-exp                         4.000000
        max-rad                        5.000000


          ...................................................
          :                      SETUP                      :
          :.................................................:
          :  # basis functions                 140          :
          :  # atomic orbitals                 137          :
          :  # shells                           69          :
          :  # electrons                       134          :
          :  max. iterations                  4000          :
          :  Hamiltonian                  GFN2-xTB          :
          :  restarted?                      false          :
          :  GBSA solvation                  false          :
          :  PC potential                    false          :
          :  electronic temp.          300.0000000     K    :
          :  accuracy                    1.0000000          :
          :  -> integral cutoff          0.2500000E+02      :
          :  -> integral neglect         0.1000000E-07      :
          :  -> SCF convergence          0.1000000E-05 Eh   :
          :  -> wf. convergence          0.1000000E-03 e    :
          :  Broyden damping             0.4000000          :
          ...................................................

 iter      E             dE          RMSdq      gap      omega  full diag
   1    -74.2473334 -0.742473E+02  0.475E+00    1.49       0.0  T
   2    -74.3161672 -0.688338E-01  0.303E+00    1.26       1.0  T
   3    -74.2907243  0.254429E-01  0.158E+00    1.00       1.0  T
   4    -74.3338933 -0.431690E-01  0.664E-01    1.09       1.0  T
   5    -74.3478664 -0.139731E-01  0.275E-01    1.02       1.0  T
   6    -74.3496392 -0.177275E-02  0.108E-01    1.03       1.0  T
   7    -74.3497061 -0.669443E-04  0.482E-02    1.04       1.0  T
   8    -74.3497287 -0.225831E-04  0.263E-02    1.04       1.0  T
   9    -74.3497376 -0.890948E-05  0.146E-02    1.04       1.1  T
  10    -74.3497395 -0.187706E-05  0.835E-03    1.04       1.9  T
  11    -74.3497401 -0.610161E-06  0.432E-03    1.04       3.8  T
  12    -74.3497403 -0.250632E-06  0.195E-03    1.04       8.3  T
  13    -74.3497404 -0.446023E-07  0.105E-03    1.04      15.4  T
  14    -74.3497404 -0.834633E-08  0.578E-04    1.04      28.1  T
  15    -74.3497404 -0.549970E-08  0.259E-04    1.04      62.7  T

   *** convergence criteria satisfied after 15 iterations ***

         #    Occupation            Energy/Eh            Energy/eV
      -------------------------------------------------------------
         1        2.0000           -0.7726908             -21.0260
       ...           ...                  ...                  ...
        61        2.0000           -0.4161444             -11.3239
        62        2.0000           -0.4090957             -11.1321
        63        2.0000           -0.3977913             -10.8245
        64        2.0000           -0.3864269             -10.5152
        65        2.0000           -0.3851016             -10.4791
        66        2.0000           -0.3809926             -10.3673
        67        2.0000           -0.3667356              -9.9794 (HOMO)
        68                         -0.3283967              -8.9361 (LUMO)
        69                         -0.2866074              -7.7990
        70                         -0.2770023              -7.5376
        71                         -0.2489962              -6.7755
        72                         -0.2412781              -6.5655
       ...                                ...                  ...
       137                          0.9175117              24.9668
      -------------------------------------------------------------
                  HL-Gap            0.0383388 Eh            1.0433 eV
             Fermi-level           -0.3475661 Eh           -9.4578 eV

 SCC (total)                   0 d,  0 h,  0 min,  0.289 sec
 SCC setup                      ...        0 min,  0.000 sec (  0.067%)
 Dispersion                     ...        0 min,  0.006 sec (  2.175%)
 classical contributions        ...        0 min,  0.002 sec (  0.591%)
 integral evaluation            ...        0 min,  0.005 sec (  1.700%)
 iterations                     ...        0 min,  0.263 sec ( 90.906%)
 molecular gradient             ...        0 min,  0.012 sec (  4.034%)
 printout                       ...        0 min,  0.001 sec (  0.517%)

         :::::::::::::::::::::::::::::::::::::::::::::::::::::
         ::                     SUMMARY                     ::
         :::::::::::::::::::::::::::::::::::::::::::::::::::::
         :: total energy             -73.329328389021 Eh    ::
         :: gradient norm              0.087345200214 Eh/a0 ::
         :: HOMO-LUMO gap              1.043252946740 eV    ::
         ::.................................................::
         :: SCC energy               -74.349740406685 Eh    ::
         :: -> isotropic ES            0.034992247332 Eh    ::
         :: -> anisotropic ES          0.005915212577 Eh    ::
         :: -> anisotropic XC          0.039875511610 Eh    ::
         :: -> dispersion             -0.056408120291 Eh    ::
         :: repulsion energy           1.021107718221 Eh    ::
         :: add. restraining           0.000000000000 Eh    ::
         :: total charge              -0.000000000000 e     ::
         :::::::::::::::::::::::::::::::::::::::::::::::::::::

      ----------------------------------------------------------- 
     |                   =====================                   |
     |                        A N C O P T                        |
     |                   =====================                   |
     |               Approximate Normal Coordinate               |
     |                Rational Function Optimizer                |
      ----------------------------------------------------------- 

          ...................................................
          :                      SETUP                      :
          :.................................................:
          :   optimization level            normal          :
          :   max. optcycles                   200          :
          :   ANC micro-cycles                  20          :
          :   degrees of freedom               108          :
          :.................................................:
          :   RF solver                   davidson          :
          :   write xtbopt.log                true          :
          :   linear?                        false          :
          :   energy convergence         0.5000000E-05 Eh   :
          :   grad. convergence          0.1000000E-02 Eh/α :
          :   maximium RF displ.         1.0000000          :
          :   Hlow (freq-cutoff)         0.1000000E-01      :
          :   Hmax (freq-cutoff)         5.0000000          :
          :   S6 in model hess.         20.0000000          :
          ...................................................

generating ANC from model Hessian ...
Using Lindh-Hessian (1995)
 Shifting diagonal of input Hessian by    9.8418621139911167E-003
 Lowest  eigenvalues of input Hessian
    0.000000    0.000000    0.000000    0.000000    0.000000    0.000000
    0.010000    0.010508    0.010565    0.010896    0.011350    0.012443
    0.012953    0.014944    0.016580    0.018287    0.018304    0.020020
 Highest eigenvalues
    1.964484    2.031998    2.036988    2.106783    2.154405    2.189187


........................................................................
.............................. CYCLE    1 ..............................
........................................................................
   1    -74.3497404 -0.743497E+02  0.120E-04    1.04       0.0  T
   2    -74.3497404 -0.426468E-10  0.839E-05    1.04     193.3  T
   3    -74.3497404 -0.473932E-10  0.676E-05    1.04     239.9  T
     SCC iter.                  ...        0 min,  0.130 sec
     gradient                   ...        0 min,  0.011 sec
 * total energy  :   -73.3293284 Eh     change       -0.3266933E-09 Eh
   gradient norm :     0.0873448 Eh/α   predicted     0.0000000E+00 (-100.00%)
   displ. norm   :     0.3120598 α      lambda       -0.1364659E-01
   maximum displ.:     0.1804241 α      in ANC's #17, #31, #11, ...

........................................................................
.............................. CYCLE    2 ..............................
........................................................................
   1    -74.3702574 -0.743703E+02  0.300E-01    1.06       0.0  T
   2    -74.3704035 -0.146145E-03  0.184E-01    1.06       1.0  T
   3    -74.3702574  0.146081E-03  0.103E-01    1.06       1.0  T
   4    -74.3704858 -0.228394E-03  0.379E-02    1.06       1.0  T
   5    -74.3705087 -0.228843E-04  0.197E-02    1.06       1.0  T
   6    -74.3705142 -0.549584E-05  0.980E-03    1.06       1.7  T
   7    -74.3705145 -0.304846E-06  0.633E-03    1.06       2.6  T
   8    -74.3705150 -0.482117E-06  0.305E-03    1.06       5.3  T
   9    -74.3705150 -0.511704E-07  0.131E-03    1.06      12.4  T
  10    -74.3705151 -0.404605E-07  0.433E-04    1.06      37.5  T
  11    -74.3705151 -0.305981E-08  0.214E-04    1.06      75.6  T
     SCC iter.                  ...        0 min,  0.214 sec
     gradient                   ...        0 min,  0.014 sec
 * total energy  :   -73.3388625 Eh     change       -0.9534077E-02 Eh
   gradient norm :     0.0414831 Eh/α   predicted    -0.7492884E-02 ( -21.41%)
   displ. norm   :     0.2944736 α      lambda       -0.5270793E-02
   maximum displ.:     0.1432698 α      in ANC's #17, #11, #31, ...

........................................................................
.............................. CYCLE    3 ..............................
........................................................................
   1    -74.3847460 -0.743847E+02  0.221E-01    1.07       0.0  T
   2    -74.3848323 -0.863804E-04  0.120E-01    1.07       1.0  T
   3    -74.3847524  0.799775E-04  0.736E-02    1.07       1.0  T
   4    -74.3848642 -0.111864E-03  0.324E-02    1.07       1.0  T
   5    -74.3848896 -0.253485E-04  0.117E-02    1.07       1.4  T
   6    -74.3848924 -0.279364E-05  0.462E-03    1.07       3.5  T
   7    -74.3848925 -0.169535E-06  0.274E-03    1.07       5.9  T
   8    -74.3848926 -0.103986E-06  0.152E-03    1.07      10.7  T
   9    -74.3848926 -0.444885E-09  0.842E-04    1.07      19.3  T
  10    -74.3848927 -0.986738E-08  0.307E-04    1.07      52.9  T
     SCC iter.                  ...        0 min,  0.210 sec
     gradient                   ...        0 min,  0.011 sec
 * total energy  :   -73.3420984 Eh     change       -0.3235929E-02 Eh
   gradient norm :     0.0177517 Eh/α   predicted    -0.2866661E-02 ( -11.41%)
   displ. norm   :     0.1835406 α      lambda       -0.9540609E-03
   maximum displ.:     0.1088746 α      in ANC's #11, #6, #17, ...

........................................................................
.............................. CYCLE    4 ..............................
........................................................................
   1    -74.3861821 -0.743862E+02  0.105E-01    1.07       0.0  T
   2    -74.3861966 -0.144369E-04  0.540E-02    1.06       1.0  T
   3    -74.3861811  0.154736E-04  0.319E-02    1.06       1.0  T
   4    -74.3861996 -0.184705E-04  0.155E-02    1.06       1.0  T
   5    -74.3862056 -0.600426E-05  0.576E-03    1.06       2.8  T
   6    -74.3862061 -0.560805E-06  0.223E-03    1.06       7.3  T
   7    -74.3862062 -0.490377E-07  0.117E-03    1.06      13.8  T
   8    -74.3862062 -0.150109E-07  0.688E-04    1.06      23.6  T
   9    -74.3862062 -0.199613E-08  0.361E-04    1.06      44.9  T
     SCC iter.                  ...        0 min,  0.189 sec
     gradient                   ...        0 min,  0.012 sec
 * total energy  :   -73.3427361 Eh     change       -0.6376824E-03 Eh
   gradient norm :     0.0108618 Eh/α   predicted    -0.4931210E-03 ( -22.67%)
   displ. norm   :     0.1310311 α      lambda       -0.3024417E-03
   maximum displ.:     0.0773493 α      in ANC's #6, #11, #2, ...

........................................................................
.............................. CYCLE    5 ..............................
........................................................................
   1    -74.3862265 -0.743862E+02  0.576E-02    1.07       0.0  T
   2    -74.3862347 -0.824683E-05  0.303E-02    1.06       1.0  T
   3    -74.3862334  0.133296E-05  0.166E-02    1.06       1.0  T
   4    -74.3862371 -0.374481E-05  0.732E-03    1.06       2.2  T
   5    -74.3862377 -0.581572E-06  0.397E-03    1.06       4.1  T
   6    -74.3862381 -0.397287E-06  0.162E-03    1.06      10.0  T
   7    -74.3862381 -0.378390E-07  0.791E-04    1.06      20.5  T
   8    -74.3862381 -0.529083E-08  0.418E-04    1.06      38.8  T
     SCC iter.                  ...        0 min,  0.181 sec
     gradient                   ...        0 min,  0.011 sec
 * total energy  :   -73.3429187 Eh     change       -0.1826705E-03 Eh
   gradient norm :     0.0042284 Eh/α   predicted    -0.1538250E-03 ( -15.79%)
   displ. norm   :     0.0593518 α      lambda       -0.4696922E-04
   maximum displ.:     0.0398160 α      in ANC's #6, #2, #11, ...

........................................................................
.............................. CYCLE    6 ..............................
........................................................................
   1    -74.3867045 -0.743867E+02  0.154E-02    1.06       0.0  T
   2    -74.3867057 -0.114596E-05  0.931E-03    1.06       1.7  T
   3    -74.3867057  0.275074E-07  0.497E-03    1.06       3.3  T
   4    -74.3867060 -0.336614E-06  0.239E-03    1.06       6.8  T
   5    -74.3867061 -0.858203E-07  0.131E-03    1.06      12.3  T
   6    -74.3867061 -0.495867E-07  0.424E-04    1.06      38.3  T
   7    -74.3867061 -0.560590E-09  0.248E-04    1.06      65.5  T
     SCC iter.                  ...        0 min,  0.173 sec
     gradient                   ...        0 min,  0.015 sec
 * total energy  :   -73.3429509 Eh     change       -0.3218995E-04 Eh
   gradient norm :     0.0016534 Eh/α   predicted    -0.2361136E-04 ( -26.65%)
   displ. norm   :     0.0809670 α      lambda       -0.2167424E-04
   maximum displ.:     0.0605780 α      in ANC's #2, #6, #17, ...

........................................................................
.............................. CYCLE    7 ..............................
........................................................................
   1    -74.3873375 -0.743873E+02  0.154E-02    1.06       0.0  T
   2    -74.3873380 -0.560175E-06  0.976E-03    1.06       1.7  T
   3    -74.3873372  0.837098E-06  0.567E-03    1.06       2.9  T
   4    -74.3873383 -0.107183E-05  0.213E-03    1.06       7.6  T
   5    -74.3873383 -0.892762E-07  0.111E-03    1.06      14.7  T
   6    -74.3873384 -0.320450E-07  0.311E-04    1.06      52.2  T
   7    -74.3873384 -0.107534E-09  0.184E-04    1.06      88.4  T
     SCC iter.                  ...        0 min,  0.187 sec
     gradient                   ...        0 min,  0.012 sec
 * total energy  :   -73.3429705 Eh     change       -0.1960667E-04 Eh
   gradient norm :     0.0021380 Eh/α   predicted    -0.1090524E-04 ( -44.38%)
   displ. norm   :     0.0329502 α      lambda       -0.1018729E-04
   maximum displ.:     0.0264446 α      in ANC's #2, #6, #11, ...

........................................................................
.............................. CYCLE    8 ..............................
........................................................................
   1    -74.3873488 -0.743873E+02  0.633E-03    1.06       0.0  T
   2    -74.3873488 -0.477900E-07  0.359E-03    1.06       4.5  T
   3    -74.3873488  0.482380E-07  0.158E-03    1.06      10.3  T
   4    -74.3873489 -0.623724E-07  0.541E-04    1.06      30.0  T
   5    -74.3873489 -0.150548E-08  0.336E-04    1.06      48.3  T
     SCC iter.                  ...        0 min,  0.155 sec
     gradient                   ...        0 min,  0.012 sec
 * total energy  :   -73.3429796 Eh     change       -0.9022733E-05 Eh
   gradient norm :     0.0016971 Eh/α   predicted    -0.5105987E-05 ( -43.41%)
   displ. norm   :     0.0769335 α      lambda       -0.1443530E-04
   maximum displ.:     0.0612665 α      in ANC's #2, #6, #11, ...

........................................................................
.............................. CYCLE    9 ..............................
........................................................................
   1    -74.3871010 -0.743871E+02  0.156E-02    1.06       0.0  T
   2    -74.3871014 -0.443248E-06  0.887E-03    1.06       1.8  T
   3    -74.3871012  0.251139E-06  0.398E-03    1.06       4.1  T
   4    -74.3871015 -0.367331E-06  0.151E-03    1.06      10.7  T
   5    -74.3871016 -0.149796E-07  0.829E-04    1.06      19.6  T
   6    -74.3871016 -0.179963E-07  0.366E-04    1.06      44.4  T
     SCC iter.                  ...        0 min,  0.197 sec
     gradient                   ...        0 min,  0.015 sec
 * total energy  :   -73.3429937 Eh     change       -0.1413290E-04 Eh
   gradient norm :     0.0009073 Eh/α   predicted    -0.7244535E-05 ( -48.74%)
   displ. norm   :     0.0418137 α      lambda       -0.4555311E-05
   maximum displ.:     0.0376326 α      in ANC's #2, #6, #11, ...

........................................................................
.............................. CYCLE   10 ..............................
........................................................................
   1    -74.3870072 -0.743870E+02  0.777E-03    1.06       0.0  T
   2    -74.3870072 -0.297467E-07  0.418E-03    1.06       3.9  T
   3    -74.3870072  0.516687E-07  0.173E-03    1.06       9.4  T
   4    -74.3870072 -0.602614E-07  0.857E-04    1.06      18.9  T
   5    -74.3870072 -0.122839E-08  0.475E-04    1.06      34.2  T
     SCC iter.                  ...        0 min,  0.160 sec
     gradient                   ...        0 min,  0.014 sec
 * total energy  :   -73.3429988 Eh     change       -0.5089921E-05 Eh
   gradient norm :     0.0007359 Eh/α   predicted    -0.2283106E-05 ( -55.14%)
   displ. norm   :     0.0243183 α      lambda       -0.2981117E-05
   maximum displ.:     0.0234744 α      in ANC's #2, #1, #4, ...

........................................................................
.............................. CYCLE   11 ..............................
........................................................................
   1    -74.3870350 -0.743870E+02  0.453E-03    1.06       0.0  T
   2    -74.3870351 -0.245294E-07  0.255E-03    1.06       6.4  T
   3    -74.3870350  0.267241E-07  0.125E-03    1.06      13.0  T
   4    -74.3870351 -0.350455E-07  0.468E-04    1.06      34.7  T
   5    -74.3870351 -0.912237E-09  0.282E-04    1.06      57.5  T
     SCC iter.                  ...        0 min,  0.157 sec
     gradient                   ...        0 min,  0.015 sec
 * total energy  :   -73.3430025 Eh     change       -0.3664519E-05 Eh
   gradient norm :     0.0004530 Eh/α   predicted    -0.1495787E-05 ( -59.18%)
   displ. norm   :     0.0240647 α      lambda       -0.2420249E-05
   maximum displ.:     0.0215597 α      in ANC's #2, #6, #1, ...

   *** GEOMETRY OPTIMIZATION CONVERGED AFTER 11 ITERATIONS ***

------------------------------------------------------------------------
 total energy gain   :        -0.0136741 Eh       -8.5806 kcal/mol
 total RMSD          :         0.1563753 a0        0.0828 Å
 total power (kW/mol):        -3.2637503 (step)  -16.2280 (real)
------------------------------------------------------------------------

 ANCopt (total)                0 d,  0 h,  0 min,  2.212 sec
 optimizer setup                ...        0 min,  0.000 sec (  0.004%)
 model hessian                  ...        0 min,  0.005 sec (  0.245%)
 ANC generation                 ...        0 min,  0.004 sec (  0.170%)
 coordinate transformation      ...        0 min,  0.000 sec (  0.020%)
 single point calculation       ...        0 min,  2.174 sec ( 98.291%)
 optimization log               ...        0 min,  0.002 sec (  0.074%)
 hessian update                 ...        0 min,  0.002 sec (  0.080%)
 rational function              ...        0 min,  0.001 sec (  0.057%)

================
 final structure:
================
38
 xtb: 6.5.1 (fef0646)
C            7.64366060117720       -0.34690782271560       -0.01440167654057
N            7.15453404664258        0.83872405156099       -0.01597814242184
C            5.81003160746918        0.82397687022440       -0.00976859875695
C            5.22185195800670       -0.41983758830203       -0.00305103919089
S            6.47352129809821       -1.63224144162262       -0.00475439703999
C            3.83474199641875       -0.73497343835788        0.00354260016743
C            3.28363357608625       -1.99566784686391        0.01155064331491
C            1.88578413122432       -2.03550241660158        0.01550817330411
C            1.25836462248069       -0.80886122656245        0.01084761992509
Se           2.50541225648385        0.59668828176198        0.00117657391742
C           -0.14450898405917       -0.53676191569780        0.01115452514096
C           -1.16268863296077       -1.48401664294436        0.01494705272608
N           -2.45927375819768       -1.21425429320906        0.01218439167188
C           -2.93709401981029        0.01939429088604        0.00640625400244
C           -4.37540300901389        0.18220942324796        0.00180444323612
C           -4.98214711135782        1.42116518859947        0.00119528467569
C           -6.38168312675649        1.58102081161663       -0.00381457617977
C           -7.23069454347991        0.51191248016691       -0.00869207938915
C           -6.66716140173320       -0.78056153427989       -0.00842398727480
C           -7.19801322958191       -2.05415239792386       -0.01274747244552
O           -6.21558943981939       -2.95783393088665       -0.01011162385700
C           -5.03967480159252       -2.32083608514572       -0.00441715754539
C           -5.23516244580594       -0.95874508520226       -0.00289191619470
C           -2.00753562972053        1.10532543327216        0.00388880527227
N           -2.21157615928058        2.42289250071964       -0.00127780880144
S           -0.80083994548782        3.18833203619093       -0.00364453744932
N            0.15927985385830        1.88891229706595        0.00178637902562
C           -0.60640977564907        0.80003680360793        0.00577113818279
H            8.69221499878421       -0.56628618696927       -0.01861277973568
H            5.26310157128117        1.75266438034382       -0.01026316208087
H            3.89204112448560       -2.88572328656331        0.01428742275545
H            1.33933519816590       -2.96335265338080        0.02164227593680
H           -0.92769723461645       -2.53960472208851        0.01994718424526
H           -4.36496268991299        2.30539112035137        0.00464749831494
H           -6.77941868240741        2.58520339776665       -0.00383194920832
H           -8.30288713289018        0.63466388290885       -0.01274080468447
H           -8.20858097476447       -2.41050923875015       -0.01752970328884
H           -4.14561211996437       -2.90735635402376       -0.00166546863031

 Bond Distances (Angstroems)
 ---------------------------
C1-N2=1.2826         C1-S5=1.7382         C1-H29=1.0713        N2-C1=1.2826         N2-C3=1.3446         C3-N2=1.3446         
C3-C4=1.3759         C3-H30=1.0778        C4-C3=1.3759         C4-S5=1.7426         C4-C6=1.4225         S5-C1=1.7382         
S5-C4=1.7426         C6-C4=1.4225         C6-C7=1.3759         C6-Se10=1.8816       C7-C6=1.3759         C7-C8=1.3984         
C7-H31=1.0781        C8-C7=1.3984         C8-C9=1.3778         C8-H32=1.0768        C9-C8=1.3778         C9-Se10=1.8790       
C9-C11=1.4290        Se10-C6=1.8816       Se10-C9=1.8790       C11-C9=1.4290        C11-C12=1.3907       C11-C28=1.4144       
C12-C11=1.3907       C12-N13=1.3244       C12-H33=1.0814       N13-C12=1.3244       N13-C14=1.3230       C14-N13=1.3230       
C14-C15=1.4475       C14-C24=1.4295       C15-C14=1.4475       C15-C16=1.3795       C15-C23=1.4286       C16-C15=1.3795       
C16-C17=1.4086       C16-H34=1.0783       C17-C16=1.4086       C17-C18=1.3652       C17-H35=1.0801       C18-C17=1.3652       
C18-C19=1.4100       C18-H36=1.0792       C19-C18=1.4100       C19-C20=1.3798       C19-C23=1.4431       C20-C19=1.3798       
C20-O21=1.3348       C20-H37=1.0716       O21-C20=1.3348       O21-C22=1.3374       C22-O21=1.3374       C22-C23=1.3760       
C22-H38=1.0693       C23-C15=1.4286       C23-C19=1.4431       C23-C22=1.3760       C24-C14=1.4295       C24-N25=1.3333       
C24-C28=1.4340       N25-C24=1.3333       N25-S26=1.6050       S26-N25=1.6050       S26-N27=1.6157       N27-S26=1.6157       
N27-C28=1.3311       C28-C11=1.4144       C28-C24=1.4340       C28-N27=1.3311       H29-C1=1.0713        H30-C3=1.0778        
H31-C7=1.0781        H32-C8=1.0768        H33-C12=1.0814       H34-C16=1.0783       H35-C17=1.0801       H36-C18=1.0792       
H37-C20=1.0716       H38-C22=1.0693       
 C  H  Rav=1.0764 sigma=0.0039  Rmin=1.0693  Rmax=1.0814    10
 C  C  Rav=1.4045 sigma=0.0258  Rmin=1.3652  Rmax=1.4475    19
 N  C  Rav=1.3232 sigma=0.0195  Rmin=1.2826  Rmax=1.3446     6
 O  C  Rav=1.3361 sigma=0.0013  Rmin=1.3348  Rmax=1.3374     2
 S  C  Rav=1.7404 sigma=0.0022  Rmin=1.7382  Rmax=1.7426     2
 S  N  Rav=1.6103 sigma=0.0053  Rmin=1.6050  Rmax=1.6157     2
 Se C  Rav=1.8803 sigma=0.0013  Rmin=1.8790  Rmax=1.8816     2

 selected bond angles (degree)
 --------------------
S5-C1-N2=115.27                H29-C1-N2=124.23               H29-C1-S5=120.50               C3-N2-C1=111.79                
C4-C3-N2=115.94                H30-C3-N2=119.87               H30-C3-C4=124.20               S5-C4-C3=108.78                
C6-C4-C3=128.11                C6-C4-S5=123.11                C4-S5-C1= 88.23                C7-C6-C4=126.41                
Se10-C6-C4=122.15              Se10-C6-C7=111.44              C8-C7-C6=115.25                H31-C7-C6=122.03               
H31-C7-C8=122.72               C9-C8-C7=115.46                H32-C8-C7=122.13               H32-C8-C9=122.42               
Se10-C9-C8=111.33              C11-C9-C8=128.07               C11-C9-Se10=120.60             C9-Se10-C6= 86.53              

 selected dihedral angles (degree)
 ---------------------------------
C3-N2-C1-S5=  0.00            C3-N2-C1-H29=179.99           C4-C3-N2-C1=  0.00            H30-C3-N2-C1=180.00           
S5-C4-C3-N2=  0.00            S5-C4-C3-H30=180.00           C6-C4-C3-N2=180.04            C6-C4-C3-H30=  0.04           
C4-S5-C1-N2=  0.00            C4-S5-C1-H29=180.01           C1-S5-C4-C3=  0.00            C1-S5-C4-C6=179.96            
C7-C6-C4-C3=180.07            C7-C6-C4-S5=  0.11            Se10-C6-C4-C3=  0.10          Se10-C6-C4-S5=180.15          
C8-C7-C6-C4=180.06            C8-C7-C6-Se10=  0.03          H31-C7-C6-C4=  0.05           H31-C7-C6-Se10=180.02         
C9-C8-C7-C6=  0.00            C9-C8-C7-H31=180.01           H32-C8-C7-C6=179.99           H32-C8-C7-H31=  0.00          
Se10-C9-C8-C7=359.97          Se10-C9-C8-H32=179.98         C11-C9-C8-C7=179.90           C11-C9-C8-H32=359.90          
C9-Se10-C6-C4=179.93          C9-Se10-C6-C7=359.96          C6-Se10-C9-C8=  0.04          C6-Se10-C9-C11=180.11         
           -------------------------------------------------
          |                Final Singlepoint                |
           -------------------------------------------------

          ...................................................
          :                      SETUP                      :
          :.................................................:
          :  # basis functions                 140          :
          :  # atomic orbitals                 137          :
          :  # shells                           69          :
          :  # electrons                       134          :
          :  max. iterations                  4000          :
          :  Hamiltonian                  GFN2-xTB          :
          :  restarted?                      false          :
          :  GBSA solvation                  false          :
          :  PC potential                    false          :
          :  electronic temp.          300.0000000     K    :
          :  accuracy                    1.0000000          :
          :  -> integral cutoff          0.2500000E+02      :
          :  -> integral neglect         0.1000000E-07      :
          :  -> SCF convergence          0.1000000E-05 Eh   :
          :  -> wf. convergence          0.1000000E-03 e    :
          :  Broyden damping             0.4000000          :
          ...................................................

 iter      E             dE          RMSdq      gap      omega  full diag
   1    -74.3870351 -0.743870E+02  0.118E-04    1.06       0.0  T
   2    -74.3870351  0.582077E-10  0.106E-04    1.06     153.6  T
   3    -74.3870351 -0.314060E-09  0.534E-05    1.06     303.7  T

   *** convergence criteria satisfied after 3 iterations ***

         #    Occupation            Energy/Eh            Energy/eV
      -------------------------------------------------------------
         1        2.0000           -0.7762369             -21.1225
       ...           ...                  ...                  ...
        61        2.0000           -0.4171835             -11.3521
        62        2.0000           -0.4092619             -11.1366
        63        2.0000           -0.3974815             -10.8160
        64        2.0000           -0.3888363             -10.5808
        65        2.0000           -0.3790954             -10.3157
        66        2.0000           -0.3788329             -10.3086
        67        2.0000           -0.3646757              -9.9233 (HOMO)
        68                         -0.3258115              -8.8658 (LUMO)
        69                         -0.2869637              -7.8087
        70                         -0.2745403              -7.4706
        71                         -0.2469273              -6.7192
        72                         -0.2366049              -6.4383
       ...                                ...                  ...
       137                          0.9509672              25.8771
      -------------------------------------------------------------
                  HL-Gap            0.0388642 Eh            1.0575 eV
             Fermi-level           -0.3452436 Eh           -9.3946 eV

 SCC (total)                   0 d,  0 h,  0 min,  0.148 sec
 SCC setup                      ...        0 min,  0.000 sec (  0.086%)
 Dispersion                     ...        0 min,  0.001 sec (  0.363%)
 classical contributions        ...        0 min,  0.000 sec (  0.040%)
 integral evaluation            ...        0 min,  0.004 sec (  2.754%)
 iterations                     ...        0 min,  0.129 sec ( 86.942%)
 molecular gradient             ...        0 min,  0.013 sec (  8.758%)
 printout                       ...        0 min,  0.002 sec (  1.031%)

         :::::::::::::::::::::::::::::::::::::::::::::::::::::
         ::                     SUMMARY                     ::
         :::::::::::::::::::::::::::::::::::::::::::::::::::::
         :: total energy             -73.343002455989 Eh    ::
         :: gradient norm              0.000453012326 Eh/a0 ::
         :: HOMO-LUMO gap              1.057547874292 eV    ::
         ::.................................................::
         :: SCC energy               -74.387035069963 Eh    ::
         :: -> isotropic ES            0.035208153534 Eh    ::
         :: -> anisotropic ES          0.006134536307 Eh    ::
         :: -> anisotropic XC          0.039470117573 Eh    ::
         :: -> dispersion             -0.056683079514 Eh    ::
         :: repulsion energy           1.044719875325 Eh    ::
         :: add. restraining           0.000000000000 Eh    ::
         :: total charge              -0.000000000000 e     ::
         :::::::::::::::::::::::::::::::::::::::::::::::::::::

           -------------------------------------------------
          |                Property Printout                |
           -------------------------------------------------

    * Orbital Energies and Occupations

         #    Occupation            Energy/Eh            Energy/eV
      -------------------------------------------------------------
         1        2.0000           -0.7762369             -21.1225
       ...           ...                  ...                  ...
        55        2.0000           -0.4372578             -11.8984
        56        2.0000           -0.4357803             -11.8582
        57        2.0000           -0.4326377             -11.7727
        58        2.0000           -0.4213773             -11.4663
        59        2.0000           -0.4183624             -11.3842
        60        2.0000           -0.4179542             -11.3731
        61        2.0000           -0.4171835             -11.3521
        62        2.0000           -0.4092619             -11.1366
        63        2.0000           -0.3974815             -10.8160
        64        2.0000           -0.3888363             -10.5808
        65        2.0000           -0.3790954             -10.3157
        66        2.0000           -0.3788329             -10.3086
        67        2.0000           -0.3646757              -9.9233 (HOMO)
        68                         -0.3258115              -8.8658 (LUMO)
        69                         -0.2869637              -7.8087
        70                         -0.2745403              -7.4706
        71                         -0.2469273              -6.7192
        72                         -0.2366049              -6.4383
        73                         -0.2364382              -6.4338
        74                         -0.2179677              -5.9312
        75                         -0.2169917              -5.9046
        76                         -0.2006194              -5.4591
        77                         -0.1970475              -5.3619
        78                         -0.1905869              -5.1861
       ...                                ...                  ...
       137                          0.9509672              25.8771
      -------------------------------------------------------------
                  HL-Gap            0.0388642 Eh            1.0575 eV
             Fermi-level           -0.3452436 Eh           -9.3946 eV

     #   Z          covCN         q      C6AA      α(0)
     1   6 C        2.995     0.074    26.332     8.418
     2   7 N        1.952    -0.210    26.379     7.616
     3   6 C        3.191     0.030    26.850     8.451
     4   6 C        3.003     0.019    27.575     8.614
     5  16 S        2.283    -0.046   142.972    20.125
     6   6 C        3.000     0.001    27.994     8.679
     7   6 C        3.071    -0.040    28.921     8.818
     8   6 C        3.074    -0.040    28.919     8.817
     9   6 C        2.979     0.012    27.753     8.641
    10  34 Se       2.429    -0.032   236.797    26.814
    11   6 C        2.992    -0.015    28.374     8.738
    12   6 C        2.891     0.046    26.970     8.515
    13   7 N        1.846    -0.236    27.021     7.704
    14   6 C        2.928     0.081    26.191     8.393
    15   6 C        2.965     0.008    27.847     8.656
    16   6 C        2.922    -0.033    28.817     8.803
    17   6 C        2.917    -0.028    28.708     8.786
    18   6 C        2.905    -0.027    28.673     8.780
    19   6 C        3.077    -0.013    28.257     8.715
    20   6 C        3.028     0.055    26.737     8.482
    21   8 O        1.731    -0.149    16.543     5.492
    22   6 C        3.034     0.060    26.617     8.462
    23   6 C        3.071    -0.012    28.242     8.714
    24   6 C        3.316     0.061    24.649     7.912
    25   7 N        1.857    -0.261    27.639     7.792
    26  16 S        2.659     0.360   127.223    18.984
    27   7 N        1.963    -0.241    27.110     7.721
    28   6 C        3.373     0.083    23.093     7.507
    29   1 H        0.926     0.054     2.265     2.354
    30   1 H        0.926     0.053     2.279     2.360
    31   1 H        0.926     0.042     2.422     2.433
    32   1 H        0.926     0.039     2.460     2.453
    33   1 H        0.925     0.043     2.412     2.429
    34   1 H        0.926     0.062     2.171     2.304
    35   1 H        0.926     0.038     2.479     2.462
    36   1 H        0.926     0.037     2.485     2.465
    37   1 H        0.926     0.051     2.306     2.375
    38   1 H        0.927     0.073     2.050     2.239

 Mol. C6AA /au·bohr⁶  :      33522.398464
 Mol. C8AA /au·bohr⁸  :    1045474.558509
 Mol. α(0) /au        :        297.021404


Wiberg/Mayer (AO) data.
largest (>0.10) Wiberg bond orders for each atom

 ---------------------------------------------------------------------------
     #   Z sym  total        # sym  WBO       # sym  WBO       # sym  WBO
 ---------------------------------------------------------------------------
     1   6 C    3.934 --     2 N    1.638     5 S    1.167    29 H    0.965
     2   7 N    3.138 --     1 C    1.638     3 C    1.292     5 S    0.162
     3   6 C    3.955 --     4 C    1.493     2 N    1.292    30 H    0.946
     4   6 C    3.949 --     3 C    1.493     6 C    1.170     5 S    1.132
     5  16 S    2.630 --     1 C    1.167     4 C    1.132     2 N    0.162
     6   6 C    3.937 --     7 C    1.473     4 C    1.170    10 Se   1.135
     7   6 C    3.984 --     6 C    1.473     8 C    1.340    31 H    0.960
     8   6 C    3.964 --     9 C    1.461     7 C    1.340    32 H    0.961
     9   6 C    3.953 --     8 C    1.461    11 C    1.158    10 Se   1.146
    10  34 Se   2.845 --     9 C    1.146     6 C    1.135    27 N    0.175
    11   6 C    3.966 --    12 C    1.387    28 C    1.194     9 C    1.158
    12   6 C    3.969 --    13 N    1.398    11 C    1.387    33 H    0.958
    13   7 N    3.085 --    14 C    1.422    12 C    1.398
    14   6 C    3.946 --    13 N    1.422    24 C    1.168    15 C    1.119
    15   6 C    3.986 --    16 C    1.484    23 C    1.173    14 C    1.119
    16   6 C    3.968 --    15 C    1.484    17 C    1.310    34 H    0.957
    17   6 C    3.988 --    18 C    1.573    16 C    1.310    35 H    0.970
    18   6 C    3.951 --    17 C    1.573    19 C    1.236    36 H    0.968
    19   6 C    3.985 --    20 C    1.436    18 C    1.236    23 C    1.166
    20   6 C    3.883 --    19 C    1.436    21 O    1.169    37 H    0.966
                            22 C    0.191
    21   8 O    2.496 --    20 C    1.169    22 C    1.163
    22   6 C    3.893 --    23 C    1.472    21 O    1.163    38 H    0.961
                            20 C    0.191
    23   6 C    3.982 --    22 C    1.472    15 C    1.173    19 C    1.166
    24   6 C    3.970 --    25 N    1.388    28 C    1.182    14 C    1.168
                            26 S    0.100
    25   7 N    3.088 --    26 S    1.442    24 C    1.388    27 N    0.157
    26  16 S    3.165 --    25 N    1.442    27 N    1.380    24 C    0.100
    27   7 N    3.198 --    28 C    1.381    26 S    1.380    10 Se   0.175
                            25 N    0.157
    28   6 C    3.971 --    27 N    1.381    11 C    1.194    24 C    1.182
    29   1 H    0.997 --     1 C    0.965
    30   1 H    0.997 --     3 C    0.946
    31   1 H    0.997 --     7 C    0.960
    32   1 H    0.998 --     8 C    0.961
    33   1 H    0.996 --    12 C    0.958
    34   1 H    0.996 --    16 C    0.957
    35   1 H    0.998 --    17 C    0.970
    36   1 H    0.997 --    18 C    0.968
    37   1 H    0.997 --    20 C    0.966
    38   1 H    0.994 --    22 C    0.961
 ---------------------------------------------------------------------------

Topologies differ in total number of bonds
Writing topology from bond orders to xtbtopo.mol

molecular dipole:
                 x           y           z       tot (Debye)
 q only:       -1.159       0.375      -0.002
   full:       -0.959      -0.067       0.000       2.442
molecular quadrupole (traceless):
                xx          xy          yy          xz          yz          zz
 q only:        2.999      -8.245       4.762       0.071      -0.015      -7.761
  q+dip:        2.193     -12.989       6.741       0.119      -0.000      -8.934
   full:       -0.587     -13.208       2.238       0.110       0.021      -1.650

           -------------------------------------------------
          |                Geometry Summary                 |
           -------------------------------------------------

      molecular mass/u    :      465.4093066
   center of mass at/Å    :        0.0064730       0.0027985      -0.0003594
  moments of inertia/u·Å² :        0.1163590E+04   0.9102046E+04   0.1026558E+05
rotational constants/cm⁻¹ :        0.1448761E-01   0.1852071E-02   0.1642151E-02

 * 42 selected distances

     #   Z          #   Z                                           value/Å
     1   6 C        2   7 N                                       1.2825640
     2   7 N        3   6 C                                       1.3445978
     3   6 C        4   6 C                                       1.3758907
     1   6 C        5  16 S                                       1.7382181
     4   6 C        5  16 S                                       1.7425851
     4   6 C        6   6 C                                       1.4224727
     6   6 C        7   6 C                                       1.3759126
     7   6 C        8   6 C                                       1.3984226
     8   6 C        9   6 C                                       1.3777975
     6   6 C       10  34 Se                                      1.8816075 (max)
     9   6 C       10  34 Se                                      1.8790400
     9   6 C       11   6 C                                       1.4290181
    11   6 C       12   6 C                                       1.3906819
    12   6 C       13   7 N                                       1.3243537
    13   7 N       14   6 C                                       1.3229644
    15   6 C       16   6 C                                       1.3795472
    16   6 C       17   6 C                                       1.4086449
    17   6 C       18   6 C                                       1.3652242
    18   6 C       19   6 C                                       1.4099855
    19   6 C       20   6 C                                       1.3798030
    20   6 C       21   8 O                                       1.3348423
    21   8 O       22   6 C                                       1.3373759
    15   6 C       23   6 C                                       1.4286308
    19   6 C       23   6 C                                       1.4430528
    22   6 C       23   6 C                                       1.3760487
    14   6 C       24   6 C                                       1.4294516
    24   6 C       25   7 N                                       1.3332826
    25   7 N       26  16 S                                       1.6050173
    26  16 S       27   7 N                                       1.6156583
    11   6 C       28   6 C                                       1.4143594
    24   6 C       28   6 C                                       1.4340010
    27   7 N       28   6 C                                       1.3311449
     1   6 C       29   1 H                                       1.0712661
     3   6 C       30   1 H                                       1.0777724
     7   6 C       31   1 H                                       1.0781309
     8   6 C       32   1 H                                       1.0768242
    12   6 C       33   1 H                                       1.0814400
    16   6 C       34   1 H                                       1.0783247
    17   6 C       35   1 H                                       1.0800817
    18   6 C       36   1 H                                       1.0792041
    20   6 C       37   1 H                                       1.0715692
    22   6 C       38   1 H                                       1.0692810 (min)

 * 7 distinct bonds (by element types)

   Z      Z             #   av. dist./Å        max./Å        min./Å
   1 H    6 C          10     1.0763894     1.0814400     1.0692810
   6 C    6 C          18     1.4021636     1.4430528     1.3652242
   6 C    7 N           6     1.3231512     1.3445978     1.2825640
   6 C    8 O           2     1.3361091     1.3373759     1.3348423
   6 C   16 S           2     1.7404016     1.7425851     1.7382181
   7 N   16 S           2     1.6103378     1.6156583     1.6050173
   6 C   34 Se          2     1.8803238     1.8816075     1.8790400


optimized geometry written to: xtbopt.xyz


           -------------------------------------------------
          | TOTAL ENERGY              -73.343002455989 Eh   |
          | GRADIENT NORM               0.000453012326 Eh/α |
          | HOMO-LUMO GAP               1.057547874292 eV   |
           -------------------------------------------------

------------------------------------------------------------------------
 * finished run on 2024/06/14 at 02:58:09.978     
------------------------------------------------------------------------
 total:
 * wall-time:     0 d,  0 h,  0 min,  2.666 sec
 *  cpu-time:     0 d,  0 h,  0 min, 13.763 sec
 * ratio c/w:     5.162 speedup
 SCF:
 * wall-time:     0 d,  0 h,  0 min,  0.290 sec
 *  cpu-time:     0 d,  0 h,  0 min,  1.701 sec
 * ratio c/w:     5.874 speedup
 ANC optimizer:
 * wall-time:     0 d,  0 h,  0 min,  2.362 sec
 *  cpu-time:     0 d,  0 h,  0 min, 11.951 sec
 * ratio c/w:     5.061 speedup

