38
 energy: -73.343002455989 gnorm: 0.000453012326 xtb: 6.5.1 (fef0646)
C            7.64366060117720       -0.34690782271560       -0.01440167654057
N            7.15453404664258        0.83872405156099       -0.01597814242184
C            5.81003160746918        0.82397687022440       -0.00976859875695
C            5.22185195800670       -0.41983758830203       -0.00305103919089
S            6.47352129809821       -1.63224144162262       -0.00475439703999
C            3.83474199641875       -0.73497343835788        0.00354260016743
C            3.28363357608625       -1.99566784686391        0.01155064331491
C            1.88578413122432       -2.03550241660158        0.01550817330411
C            1.25836462248069       -0.80886122656245        0.01084761992509
Se           2.50541225648385        0.59668828176198        0.00117657391742
C           -0.14450898405917       -0.53676191569780        0.01115452514096
C           -1.16268863296077       -1.48401664294436        0.01494705272608
N           -2.45927375819768       -1.21425429320906        0.01218439167188
C           -2.93709401981029        0.01939429088604        0.00640625400244
C           -4.37540300901389        0.18220942324796        0.00180444323612
C           -4.98214711135782        1.42116518859947        0.00119528467569
C           -6.38168312675649        1.58102081161663       -0.00381457617977
C           -7.23069454347991        0.51191248016691       -0.00869207938915
C           -6.66716140173320       -0.78056153427989       -0.00842398727480
C           -7.19801322958191       -2.05415239792386       -0.01274747244552
O           -6.21558943981939       -2.95783393088665       -0.01011162385700
C           -5.03967480159252       -2.32083608514572       -0.00441715754539
C           -5.23516244580594       -0.95874508520226       -0.00289191619470
C           -2.00753562972053        1.10532543327216        0.00388880527227
N           -2.21157615928058        2.42289250071964       -0.00127780880144
S           -0.80083994548782        3.18833203619093       -0.00364453744932
N            0.15927985385830        1.88891229706595        0.00178637902562
C           -0.60640977564907        0.80003680360793        0.00577113818279
H            8.69221499878421       -0.56628618696927       -0.01861277973568
H            5.26310157128117        1.75266438034382       -0.01026316208087
H            3.89204112448560       -2.88572328656331        0.01428742275545
H            1.33933519816590       -2.96335265338080        0.02164227593680
H           -0.92769723461645       -2.53960472208851        0.01994718424526
H           -4.36496268991299        2.30539112035137        0.00464749831494
H           -6.77941868240741        2.58520339776665       -0.00383194920832
H           -8.30288713289018        0.63466388290885       -0.01274080468447
H           -8.20858097476447       -2.41050923875015       -0.01752970328884
H           -4.14561211996437       -2.90735635402376       -0.00166546863031
