38
 energy: -73.329328389347 gnorm: 0.087344826248 xtb: 6.5.1 (fef0646)
C            7.73868794310000       -0.41922608830000       -0.02166476440000
N            7.24848388900000        0.77612587800000       -0.01797896140000
C            5.88748447020000        0.76219217730000       -0.00643030060000
C            5.29494668660000       -0.47361645860000       -0.00217724800000
S            6.54600212210000       -1.67947193510000       -0.01064067480000
C            3.88758741310000       -0.73008431820000        0.00605776840000
C            3.29915154090000       -1.95158207910000        0.01385166840000
C            1.85521188150000       -1.97400811580000        0.01895874250000
C            1.23564277030000       -0.76455200830000        0.01495973050000
Se           2.53480233660000        0.59687048520000        0.00503439500000
C           -0.16698284640000       -0.47051296210000        0.01355129590000
C           -1.13943993870000       -1.45245230240000        0.01830452730000
N           -2.46432849720000       -1.26783001100000        0.01433200140000
C           -2.94634806090000       -0.02519603300000        0.00547668630000
C           -4.38534010810000        0.15442053130000        0.00119433140000
C           -4.98950342110000        1.39468123180000        0.00157178930000
C           -6.38649799100000        1.56390723950000       -0.00394188880000
C           -7.23109576690000        0.49637471440000       -0.00974401710000
C           -6.67098363250000       -0.80412942120000       -0.01019071480000
C           -7.22711095510000       -2.08507852230000       -0.01489623100000
O           -6.24053549090000       -3.01729829010000       -0.01199846540000
C           -5.05490947890000       -2.35364394030000       -0.00630944390000
C           -5.26952072050000       -0.97911114260000       -0.00552455650000
C           -2.05874154760000        1.10940769520000        0.00305316850000
N           -2.37252684100000        2.38928549490000       -0.00238162140000
S           -0.98627739230000        3.26533834590000       -0.00200857940000
N            0.06467599460000        2.00531408270000        0.00222928950000
C           -0.63182663320000        0.88799898730000        0.00534669450000
H            8.79721794970000       -0.60668076070000       -0.03089782740000
H            5.32142396760000        1.68319866890000       -0.00317557000000
H            3.88517397930000       -2.85695350070000        0.01567874190000
H            1.30631914000000       -2.90174325190000        0.02385360050000
H           -0.82199494630000       -2.48076296460000        0.02588833100000
H           -4.36570582130000        2.26720625920000        0.00580026820000
H           -6.79307932050000        2.56169891090000       -0.00383064580000
H           -8.29931143950000        0.62023344670000       -0.01605912390000
H           -8.28509728170000       -2.31036751630000       -0.01956266180000
H           -4.08275996120000       -2.82542538440000       -0.00206034900000
38
 energy: -73.338862466070 gnorm: 0.041483126363 xtb: 6.5.1 (fef0646)
C            7.69946847327276       -0.41419435300106       -0.02099369057313
N            7.22379425530144        0.78059742531097       -0.01761388697885
C            5.87362243897136        0.77704497097097       -0.00719979185358
C            5.26972206977932       -0.45722455317639       -0.00225767983133
S            6.50990855474230       -1.67928721515560       -0.01112481402575
C            3.86371292521715       -0.72711024407479        0.00622020314905
C            3.28799360083320       -1.96667198573348        0.01397895998553
C            1.87402833870070       -1.98628709882150        0.01837458499417
C            1.26501585986478       -0.75974085863531        0.01408369774375
Se           2.54067732290961        0.63562977695433        0.00458499255901
C           -0.14344396191660       -0.47218872423172        0.01337535015116
C           -1.13020576234172       -1.44388418215468        0.01806190950235
N           -2.44783394106545       -1.23869565493010        0.01418027439552
C           -2.94318088229628       -0.01065144504486        0.00617071689492
C           -4.38357038463708        0.15314802229037        0.00113092891256
C           -4.99333781988259        1.39143036490204        0.00147523460380
C           -6.39168754623508        1.55816007114839       -0.00426433382779
C           -7.24172992587559        0.49192786448465       -0.01056719040997
C           -6.67697995353032       -0.80198259009783       -0.01046022089546
C           -7.22144784271183       -2.07553272620266       -0.01466889687650
O           -6.23940465439875       -2.99083965343077       -0.01216588685726
C           -5.05850538102164       -2.34744540178858       -0.00603875375749
C           -5.25992476841953       -0.98080545458313       -0.00472654731233
C           -2.04207709073250        1.10713105710822        0.00324676007004
N           -2.32453979700646        2.39964752778085       -0.00200653643294
S           -0.93535382601780        3.25201483468060       -0.00323960561900
N            0.09064228713109        1.98184568695574        0.00283511980303
C           -0.61992440211434        0.86865469804288        0.00608881012770
H            8.75341634904699       -0.61800302301538       -0.02984466016303
H            5.32502510435530        1.70460861070785       -0.00335729440761
H            3.87363765727295       -2.87202273298142        0.01591850935126
H            1.32597453726445       -2.91343139002335        0.02403730579853
H           -0.83588407610843       -2.48335385554783        0.02550978876636
H           -4.37302392061219        2.27120453116593        0.00614006330797
H           -6.79153656385807        2.56064095491559       -0.00367108241846
H           -8.31254645789734        0.61660235572987       -0.01557149624922
H           -8.26092807075739       -2.34627331757231       -0.01945624624448
H           -4.11667875342639       -2.86013515074648       -0.00251521028256
38
 energy: -73.342098394750 gnorm: 0.017751747095 xtb: 6.5.1 (fef0646)
C            7.67084945168884       -0.40776316575546       -0.02060935765886
N            7.20565310838308        0.78730320906575       -0.01750798959833
C            5.86288866808360        0.79605656528454       -0.00750380997558
C            5.25009612098772       -0.43583907702863       -0.00249386206957
S            6.47956046086638       -1.67224343049347       -0.01093659736394
C            3.85178107808163       -0.71994522457099        0.00588778388897
C            3.28114318159496       -1.97043936724195        0.01367625933019
C            1.88575348190436       -1.99315376320625        0.01815688656296
C            1.27186480015410       -0.76167069671215        0.01373772376409
Se           2.53553138292611        0.63796281724125        0.00395241579785
C           -0.13546361701543       -0.48482037083785        0.01343714026053
C           -1.13584388316247       -1.44730939811817        0.01798493727777
N           -2.44331766229137       -1.21470551847002        0.01410335190234
C           -2.94357637308027        0.00683064056519        0.00673661627339
C           -4.38374715473459        0.15969876790196        0.00120045670150
C           -4.99561908296984        1.39678335591689        0.00132805365604
C           -6.39462844228890        1.55950579308360       -0.00432261219175
C           -7.24665090995750        0.49261529377377       -0.01049613152497
C           -6.67884307702626       -0.79715413850731       -0.01035631831563
C           -7.21070267779695       -2.06925577143839       -0.01485888947679
O           -6.23238086201324       -2.97247036264690       -0.01189453716489
C           -5.05752082412573       -2.33986602327795       -0.00580756604661
C           -5.24875372069163       -0.97754589883642       -0.00420142562578
C           -2.02963838608555        1.10952091805256        0.00363898031216
N           -2.27431991721813        2.41636014721860       -0.00213871488568
S           -0.87803712649083        3.23206005762035       -0.00348297048159
N            0.11786404152012        1.94975542500730        0.00281946923043
C           -0.61536887531803        0.84413871557983        0.00663454215187
H            8.71930677798578       -0.63265167685487       -0.02866862904967
H            5.32954155775644        1.73156558862408       -0.00368596888970
H            3.87142394260941       -2.87247737018463        0.01590957251385
H            1.33814319807726       -2.91969952386283        0.02408881597435
H           -0.86860145684182       -2.49690186542797        0.02477466405092
H           -4.37883176361997        2.28186557676976        0.00597727762126
H           -6.78935794167147        2.56510239967225       -0.00381769538335
H           -8.31904386553649        0.61608791799941       -0.01516111286880
H           -8.23298565368669       -2.39375910799161       -0.01976446540392
H           -4.14527398719660       -2.89901429571321       -0.00266690819516
38
 energy: -73.342736077144 gnorm: 0.010861835636 xtb: 6.5.1 (fef0646)
C            7.65817450347369       -0.40170429991249       -0.02000538116571
N            7.19569582477017        0.79427511291875       -0.01731894681811
C            5.85280495219718        0.80914057137270       -0.00782867891857
C            5.23661878639041       -0.42146822527896       -0.00274804390804
S            6.46246449491848       -1.66201694778806       -0.01072510422417
C            3.84359147944217       -0.71410061605259        0.00554041054716
C            3.28082410841767       -1.97091016928110        0.01353554527043
C            1.88629412445169       -2.00173673895872        0.01792498479084
C            1.26617071680865       -0.77125767290218        0.01350995655330
Se           2.52113600642423        0.62981833406710        0.00365366993737
C           -0.13828544596793       -0.50016988066468        0.01340698979534
C           -1.14617551662311       -1.45770780417752        0.01773981483702
N           -2.44790891993463       -1.20779645176912        0.01399056745086
C           -2.94259551422158        0.01725190791067        0.00691296327910
C           -4.38252117627348        0.16860286013949        0.00142629915213
C           -4.99466253333903        1.40533688586450        0.00127765702837
C           -6.39396952804796        1.56463137151045       -0.00438382009788
C           -7.24378819863912        0.49566556107750       -0.01030291116793
C           -6.67551127112802       -0.79383801690690       -0.01011051118321
C           -7.20330480052585       -2.06802395823624       -0.01471392054113
O           -6.22337237495870       -2.96887644788193       -0.01214145310501
C           -5.04998988608072       -2.33467817155099       -0.00555305107771
C           -5.24145386384376       -0.97237516753204       -0.00391035695612
C           -2.02199912398012        1.11340925169814        0.00397969521970
N           -2.24565897814588        2.42693826912291       -0.00195601024133
S           -0.84252096572970        3.21768911934368       -0.00390016326581
N            0.13623893583441        1.92799502817993        0.00286005741335
C           -0.61327205433623        0.82943672429604        0.00688944901563
H            8.70355654721379       -0.63839673083345       -0.02765120953106
H            5.32549644587168        1.74861326937460       -0.00431889630885
H            3.87988223831891       -2.86748141759701        0.01583979472655
H            1.33857006923377       -2.92846122314303        0.02403637364595
H           -0.89434522870846       -2.51088168538078        0.02417077877411
H           -4.37955359639229        2.29159201045425        0.00563488367070
H           -6.78938744785282        2.56992369170226       -0.00396208530480
H           -8.31640312966432        0.61708247680309       -0.01483377474041
H           -8.21770247367873       -2.41733858883003       -0.01980444384359
H           -4.15024321389439       -2.91365508895813       -0.00249174360867
38
 energy: -73.342918747619 gnorm: 0.004228386693 xtb: 6.5.1 (fef0646)
C            7.65067483653614       -0.39363917105308       -0.01944178379130
N            7.18688116931496        0.80217468522680       -0.01710904997878
C            5.84263687642473        0.81717984154947       -0.00803936224843
C            5.22733419289464       -0.41361596178201       -0.00296311118040
S            6.45400467285735       -1.65299323317735       -0.01020697433040
C            3.83709891198294       -0.71245477137278        0.00513708907290
C            3.28172866852020       -1.97261378025438        0.01324384342486
C            1.88522746673081       -2.01032289755966        0.01777786056475
C            1.25999734248862       -0.78199135484756        0.01330861640335
Se           2.50903884574744        0.62132560873579        0.00321447263054
C           -0.14313657885069       -0.51414717020016        0.01335740217449
C           -1.15587911563465       -1.46803250713135        0.01750801549634
N           -2.45420025107504       -1.20700165526532        0.01390349618563
C           -2.94116543178242        0.02285453824096        0.00702058603770
C           -4.38061852378954        0.17633510321570        0.00164049523240
C           -4.99227325482114        1.41310957069752        0.00120841511888
C           -6.39186836721203        1.56979587928800       -0.00436393488235
C           -7.23871404370676        0.49870660041714       -0.01000486500377
C           -6.67071677022118       -0.79136993482179       -0.00983211705624
C           -7.19781572101313       -2.06662942093527       -0.01464224778076
O           -6.21455403028878       -2.96747585881585       -0.01176938587825
C           -5.04076076594968       -2.32932850681107       -0.00543346112592
C           -5.23641769631788       -0.96722033987491       -0.00370883286236
C           -2.01717927188601        1.11501605987982        0.00422276997537
N           -2.22895873580522        2.43146484772442       -0.00188274110788
S           -0.82154596396292        3.20647363986419       -0.00392168462205
N            0.14673300318300        1.91215046027969        0.00271076713477
C           -0.61290433112611        0.81883276095424        0.00696902727363
H            8.69441997542674       -0.63516948762800       -0.02656008130708
H            5.31662168846974        1.75761095011623       -0.00502932745418
H            3.88821142173965       -2.86420843358719        0.01561261009317
H            1.33781424596392       -2.93741039607491        0.02394463611911
H           -0.91350789996325       -2.52235928691970        0.02352570516336
H           -4.37780592691354        2.29930285160120        0.00527370994269
H           -6.79005435808034        2.57380431292212       -0.00417424740498
H           -8.31129358409221        0.61833619572740       -0.01454893955351
H           -8.20782605837202       -2.42642075100948       -0.01988475915368
H           -4.14633264561632       -2.91554184511872       -0.00239322622182
38
 energy: -73.342950937565 gnorm: 0.001653363480 xtb: 6.5.1 (fef0646)
C            7.64817711898043       -0.38648314699224       -0.01893978819338
N            7.18109195960455        0.80812983858362       -0.01697590759006
C            5.83629598886574        0.81922080258867       -0.00820631645406
C            5.22458738195908       -0.41303338633025       -0.00304676712296
S            6.45450976108003       -1.64878575170854       -0.00981865693515
C            3.83477625781588       -0.71494509456238        0.00490274012595
C            3.28217769342218       -1.97555914978197        0.01305486061746
C            1.88489275240576       -2.01528006734259        0.01760228508080
C            1.25800775082740       -0.78805209315160        0.01309629288203
Se           2.50560868775146        0.61671163397655        0.00294656574996
C           -0.14527802511882       -0.52049627154853        0.01323711995328
C           -1.15967111624633       -1.47254386684155        0.01729624317315
N           -2.45715960732205       -1.20819434912614        0.01381116068853
C           -2.94034153543113        0.02357117743319        0.00703591779267
C           -4.37944147658519        0.17945123700328        0.00170752071515
C           -4.99038868258601        1.41644895108316        0.00114596644494
C           -6.39017786330133        1.57244355960024       -0.00439881033207
C           -7.23584351438334        0.50064111953396       -0.00991261920593
C           -6.66825087923031       -0.78991475406894       -0.00967795066844
C           -7.19585826480313       -2.06497552808681       -0.01440807397031
O           -6.21106395762876       -2.96622936517308       -0.01185227930656
C           -5.03670382341762       -2.32624299439825       -0.00522664775743
C           -5.23505683167665       -0.96453877563995       -0.00357454660114
C           -2.01536779342002        1.11396161776335        0.00430352963533
N           -2.22424476299287        2.43077334235277       -0.00176226084137
S           -0.81591705484813        3.20151935686212       -0.00396983849276
N            0.14928121059237        1.90578231925062        0.00266034920998
C           -0.61280524872285        0.81418565274048        0.00695092362605
H            8.69203297380204       -0.62649258664613       -0.02576343303966
H            5.30821653612652        1.75844803532561       -0.00556413387478
H            3.89094166983839       -2.86537143339771        0.01543833538120
H            1.33780248262736       -2.94259202113309        0.02383805654786
H           -0.92015331236071       -2.52703999098505        0.02312611415713
H           -4.37567353218088        2.30230010997178        0.00511355206053
H           -6.79010562076013        2.57569633156252       -0.00425480159353
H           -8.30840568948227        0.61982001411463       -0.01436024767454
H           -8.20503993940387       -2.42538415784949       -0.01967714150218
H           -4.14255770199672       -2.91242317278210       -0.00220792758597
38
 energy: -73.342970544236 gnorm: 0.002137984247 xtb: 6.5.1 (fef0646)
C            7.64594111871628       -0.37431489258917       -0.01809725177357
N            7.17222666684083        0.81765500757677       -0.01673610773740
C            5.82710569115573        0.82043988466259       -0.00852489266160
C            5.22285523606616       -0.41515247568702       -0.00316905137529
S            6.45943611711779       -1.64373753950260       -0.00893397704074
C            3.83321763066535       -0.72121530947656        0.00451531936854
C            3.28248291738677       -1.98171503842343        0.01271701501204
C            1.88474300047458       -2.02223745755159        0.01725300572784
C            1.25702627169560       -0.79590841873308        0.01269026204931
Se           2.50419073355371        0.61027934217559        0.00245637729367
C           -0.14661237516334       -0.52719220455826        0.01294139245739
C           -1.16257592547864       -1.47685611145404        0.01690683638674
N           -2.45966969872310       -1.20992521038900        0.01362133896135
C           -2.93935552481833        0.02315513800683        0.00705204922236
C           -4.37804388835796        0.18237389191076        0.00181865295438
C           -4.98786941541041        1.41973538190255        0.00111929936473
C           -6.38793399449831        1.57556804302738       -0.00434937880092
C           -7.23307134653599        0.50356480973468       -0.00967290309993
C           -6.66609395686134       -0.78760787789942       -0.00942978825280
C           -7.19433809092594       -2.06214867801430       -0.01418919476696
O           -6.20860429464986       -2.96379808443344       -0.01126162505197
C           -5.03375928540767       -2.32255183208090       -0.00509455979041
C           -5.23448614117497       -0.96135154442315       -0.00339086674149
C           -2.01297697894386        1.11133271829635        0.00434854781112
N           -2.21986209788547        2.42831562184014       -0.00161749670818
S           -0.81098799836724        3.19621330529495       -0.00389970475575
N            0.15181782524929        1.89921875442255        0.00250331921606
C           -0.61167897240268        0.80893842872646        0.00682624674212
H            8.69100118840739       -0.60885049729828       -0.02433178672220
H            5.29385397469518        1.75674912946499       -0.00646927275376
H            3.89231312377092       -2.87052511668747        0.01514713155977
H            1.33795758497052       -2.94978809054477        0.02356142612580
H           -0.92541495924967       -2.53170807524059        0.02246207858863
H           -4.37247422800979        2.30513081023269        0.00489644110387
H           -6.78946384402175        2.57816777873773       -0.00437240082533
H           -8.30563680480456        0.62282862283414       -0.01407555194055
H           -8.20359781616806       -2.42127575599773       -0.01943450343023
H           -4.13876745110712       -2.90727931566215       -0.00211704061698
38
 energy: -73.342979566968 gnorm: 0.001697142003 xtb: 6.5.1 (fef0646)
C            7.64554520225774       -0.36896270695959       -0.01759700655723
N            7.16869328349010        0.82168814296549       -0.01664477652855
C            5.82366646048799        0.82072244556229       -0.00869806690825
C            5.22285314323324       -0.41656894283238       -0.00316978429538
S            6.46254077170380       -1.64186885827039       -0.00846929075855
C            3.83349225970708       -0.72427708856134        0.00437358727240
C            3.28256758115333       -1.98470321938625        0.01256073054417
C            1.88486222156987       -2.02486924254131        0.01704434755772
C            1.25736034290229       -0.79849378856095        0.01246112232112
Se           2.50475883333642        0.60765574567359        0.00223013571563
C           -0.14618909568793       -0.52882183933327        0.01273258126666
C           -1.16255281729259       -1.47781435326267        0.01667799750408
N           -2.45965625452474       -1.21044209319682        0.01346883430771
C           -2.93902093092197        0.02259847803359        0.00700395836013
C           -4.37764378080072        0.18266286384811        0.00180976731313
C           -4.98701584194889        1.42020587619838        0.00109750361555
C           -6.38709379547592        1.57649912749857       -0.00434154918523
C           -7.23279215880073        0.50493617903512       -0.00960699240957
C           -6.66620848201986       -0.78644119303807       -0.00930418132691
C           -7.19461964493303       -2.06085618089127       -0.01392591625508
O           -6.20935477519728       -2.96261301083292       -0.01141868374011
C           -5.03449517211617       -2.32187612588708       -0.00489939636998
C           -5.23472183136470       -0.96061443068539       -0.00329685591384
C           -2.01190562897555        1.11015901248819        0.00432383684666
N           -2.21836234064205        2.42729529595598       -0.00154206014856
S           -0.80926241886059        3.19487211220871       -0.00387590961603
N            0.15313952514071        1.89751220235253        0.00243073950913
C           -0.61056752994089        0.80739412298212        0.00672216538683
H            8.69139728844901       -0.60038325972648       -0.02358514158439
H            5.28770617661483        1.75555354338331       -0.00697304177979
H            3.89199782649586       -2.87382167257832        0.01502724273607
H            1.33810650103310       -2.95247206827610        0.02336166121599
H           -0.92583686929175       -2.53290666897978        0.02215767513901
H           -4.37132631077400        2.30547237159189        0.00486535891531
H           -6.78832930941280        2.57924108540007       -0.00433247456297
H           -8.30533103131283        0.62469435299853       -0.01392485701731
H           -8.20420651128956       -2.41938162997911       -0.01912315642564
H           -4.13930089419073       -2.90644744219675       -0.00195071904430
38
 energy: -73.342993699869 gnorm: 0.000907333985 xtb: 6.5.1 (fef0646)
C            7.64494269997286       -0.35662149904243       -0.01622374484581
N            7.16060220051275        0.83091608023308       -0.01633305076720
C            5.81588625803139        0.82136778143687       -0.00922354023557
C            5.22299943715250       -0.42001959913883       -0.00320954556129
S            6.47003211616213       -1.63753344075355       -0.00681378353113
C            3.83470662979775       -0.73154876951914        0.00392337961286
C            3.28271953200883       -1.99178424052728        0.01210200458311
C            1.88507786553834       -2.03070781554404        0.01638566200173
C            1.25836122984198       -0.80387393753419        0.01174647954586
Se           2.50658001571735        0.60135993926967        0.00168142171888
C           -0.14476075838667       -0.53190270676823        0.01205207473439
C           -1.16198178363056       -1.47977187950265        0.01595199958375
N           -2.45902119999132       -1.21156113393309        0.01295959536224
C           -2.93815366808544        0.02132403371303        0.00681771955914
C           -4.37668194967095        0.18276196929734        0.00188600086109
C           -4.98509972450591        1.42076918880274        0.00118778082409
C           -6.38504657528151        1.57846624256148       -0.00408823895338
C           -7.23248212270531        0.50818021745841       -0.00917130140692
C           -6.66695975762162       -0.78358733970307       -0.00892952821113
C           -7.19578595533558       -2.05788780143001       -0.01361033225485
O           -6.21202839412836       -2.95994982301791       -0.01029973563079
C           -5.03715587932504       -2.32103335568726       -0.00484167936393
C           -5.23513532717891       -0.95937595799527       -0.00310764416591
C           -2.00941673567791        1.10787524192390        0.00418100579059
N           -2.21496357112499        2.42532207110345       -0.00138270037370
S           -0.80521783322848        3.19240266161709       -0.00371945150759
N            0.15644281596817        1.89419245879907        0.00215055031014
C           -0.60780663581372        0.80437496929015        0.00633472680504
H            8.69269777331520       -0.58044467185638       -0.02135395148960
H            5.27324721550639        1.75257357549202       -0.00844196937673
H            3.89070843669092       -2.88206698188186        0.01470898393153
H            1.33822533840488       -2.95832106571142        0.02268171858650
H           -0.92604278907063       -2.53529965998826        0.02121859650114
H           -4.36889993834960        2.30580103773046        0.00474364602036
H           -6.78475200463446        2.58188103708927       -0.00422138120706
H           -8.30490065904549        0.62932995522056       -0.01347105071013
H           -8.20611106910816       -2.41531958816987       -0.01864340741652
H           -4.14193124092078       -2.90576005113366       -0.00195792422364
38
 energy: -73.342998789790 gnorm: 0.000735938139 xtb: 6.5.1 (fef0646)
C            7.64414277514583       -0.35013136661934       -0.01512317829477
N            7.15635733391161        0.83601784506232       -0.01617675194281
C            5.81175942190581        0.82269389359530       -0.00952454317421
C            5.22231912392905       -0.42047065166625       -0.00304190516328
S            6.47268991544099       -1.63434920767257       -0.00582277174517
C            3.83477895290543       -0.73432436734174        0.00380522190032
C            3.28308678115577       -1.99477894260514        0.01181376046094
C            1.88532032499221       -2.03398198417018        0.01593389957144
C            1.25839464077310       -0.80716533561216        0.01129364363954
Se           2.50613456712787        0.59805663626237        0.00115696748341
C           -0.14449741030619       -0.53474386341746        0.01159511081050
C           -1.16238569424755       -1.48209380079165        0.01543089968799
N           -2.45914148579192       -1.21283864066088        0.01254089851409
C           -2.93749256544846        0.02047173202795        0.00658873183656
C           -4.37590417678558        0.18274349114231        0.00174304096850
C           -4.98348414534686        1.42121807264727        0.00109061382413
C           -6.38323345579153        1.57997541197741       -0.00407078615925
C           -7.23155409078733        0.51034712941642       -0.00907047693652
C           -6.66704394410052       -0.78177493170561       -0.00864662228475
C           -7.19676392097995       -2.05579757621685       -0.01278498694515
O           -6.21373761080940       -2.95857321934498       -0.01142453479068
C           -5.03842697680939       -2.32069312310285       -0.00422973346798
C           -5.23504851671352       -0.95877276636084       -0.00294132835459
C           -2.00805058171059        1.10651446076564        0.00405074767127
N           -2.21256085922729        2.42411192801819       -0.00130357578310
S           -0.80217247957679        3.19006969140074       -0.00368194018262
N            0.15850540118407        1.89110093596952        0.00199008000968
C           -0.60668528240944        0.80185888598227        0.00606125256510
H            8.69253317951584       -0.57075532306041       -0.01982798331469
H            5.26609639741732        1.75216708564756       -0.00951780686574
H            3.89110602477179       -2.88510084288287        0.01444230315483
H            1.33860371893847       -2.96168792757318        0.02212082395286
H           -0.92717963221185       -2.53772938534661        0.02055646823801