      -----------------------------------------------------------      
     |                   =====================                   |     
     |                           x T B                           |     
     |                   =====================                   |     
     |                         S. Grimme                         |     
     |          Mulliken Center for Theoretical Chemistry        |     
     |                    University of Bonn                     |     
      -----------------------------------------------------------      

   * xtb version 6.7.1 (edcfbbe) compiled by 'albert@albert-system' on 2024-07-22

   xtb is free software: you can redistribute it and/or modify it under
   the terms of the GNU Lesser General Public License as published by
   the Free Software Foundation, either version 3 of the License, or
   (at your option) any later version.
   
   xtb is distributed in the hope that it will be useful,
   but WITHOUT ANY WARRANTY; without even the implied warranty of
   MERCHANTABILITY or FITNESS FOR A PARTICULAR PURPOSE.  See the
   GNU Lesser General Public License for more details.
   
   Cite this work as:
   * C. Bannwarth, E. Caldeweyher, S. Ehlert, A. Hansen, P. Pracht,
     J. Seibert, S. Spicher, S. Grimme, WIREs Comput. Mol. Sci., 2020, 11,
     e01493. DOI: 10.1002/wcms.1493
   
   for GFN2-xTB:
   * C. Bannwarth, S. Ehlert and S. Grimme., J. Chem. Theory Comput., 2019,
     15, 1652-1671. DOI: 10.1021/acs.jctc.8b01176
   for GFN1-xTB:
   * S. Grimme, C. Bannwarth, P. Shushkov, J. Chem. Theory Comput., 2017,
     13, 1989-2009. DOI: 10.1021/acs.jctc.7b00118
   for GFN0-xTB:
   * P. Pracht, E. Caldeweyher, S. Ehlert, S. Grimme, ChemRxiv, 2019, preprint.
     DOI: 10.26434/chemrxiv.8326202.v1
   for GFN-FF:
   * S. Spicher and S. Grimme, Angew. Chem. Int. Ed., 2020, 59, 15665-15673.
     DOI: 10.1002/anie.202004239
   
   for ALPB and GBSA implicit solvation:
   * S. Ehlert, M. Stahn, S. Spicher, S. Grimme, J. Chem. Theory Comput.,
     2021, 17, 4250-4261. DOI: 10.1021/acs.jctc.1c00471
   
   for ddCOSMO and CPCM-X implicit solvation:
   * M. Stahn, S. Ehlert, S. Grimme, J. Phys. Chem. A,
     2023, XX, XXXX-XXXX. DOI: 10.1021/acs.jpca.3c04382
   
   for DFT-D4:
   * E. Caldeweyher, C. Bannwarth and S. Grimme, J. Chem. Phys., 2017,
     147, 034112. DOI: 10.1063/1.4993215
   * E. Caldeweyher, S. Ehlert, A. Hansen, H. Neugebauer, S. Spicher,
     C. Bannwarth and S. Grimme, J. Chem. Phys., 2019, 150, 154122.
     DOI: 10.1063/1.5090222
   * E. Caldeweyher, J.-M. Mewes, S. Ehlert and S. Grimme, Phys. Chem. Chem. Phys.
     2020, 22, 8499-8512. DOI: 10.1039/D0CP00502A
   
   for sTDA-xTB:
   * S. Grimme and C. Bannwarth, J. Chem. Phys., 2016, 145, 054103.
     DOI: 10.1063/1.4959605
   
   in the mass-spec context:
   * V. Asgeirsson, C. Bauer and S. Grimme, Chem. Sci., 2017, 8, 4879.
     DOI: 10.1039/c7sc00601b
   * J. Koopman and S. Grimme, ACS Omega 2019, 4, 12, 15120-15133.
     DOI: 10.1021/acsomega.9b02011
   
   for metadynamics refer to:
   * S. Grimme, J. Chem. Theory Comput., 2019, 155, 2847-2862
     DOI: 10.1021/acs.jctc.9b00143
   
   for SPH calculations refer to:
   * S. Spicher and S. Grimme, J. Chem. Theory Comput., 2021, 17, 1701-1714
     DOI: 10.1021/acs.jctc.0c01306
   
   for ONIOM refer to:
   * C. Plett, A. Katbashev, S. Ehlert, S. Grimme, M. Bursch,
     Phys. Chem. Chem. Phys., 2023, 25, 17860-17868. DOI: 10.1039/D3CP02178E
   
   for DIPRO refer to:
   * J. Kohn, N. Gildemeister, S. Grimme, D. Fazzi, A. Hansen,
     J. Chem. Phys., 2023, just accepted.
   
   for PTB refer to:
   * S. Grimme, M. Mueller, A. Hansen, J. Chem. Phys., 2023, 158, 124111.
     DOI: 10.1063/5.0137838
   
   with help from (in alphabetical order)
   P. Atkinson, C. Bannwarth, F. Bohle, G. Brandenburg, E. Caldeweyher
   M. Checinski, S. Dohm, S. Ehlert, S. Ehrlich, I. Gerasimov, C. Hölzer
   A. Katbashev, J. Kohn, J. Koopman, C. Lavigne, S. Lehtola, F. März, M. Müller,
   F. Musil, H. Neugebauer, J. Pisarek, C. Plett, P. Pracht, F. Pultar,
   J. Seibert, P. Shushkov, S. Spicher, M. Stahn, M. Steiner, T. Strunk,
   J. Stückrath, T. Rose, and J. Unsleber
   
 * started run on 2024/08/07 at 20:58:35.447     
   ID    Z sym.   atoms
    1    6 C      1-3, 6
    2    8 O      4
    3    7 N      5, 7
    4    1 H      8-15

           -------------------------------------------------
          |                Calculation Setup                |
           -------------------------------------------------

          program call               : xtb crest_best.xyz --gfn 2 --alpb toluene --opt vtight -c 0 --iterations 40
          coordinate file            : crest_best.xyz
          omp threads                :                     8


           -------------------------------------------------
          |                 G F N 2 - x T B                 |
           -------------------------------------------------

        Reference                      10.1021/acs.jctc.8b01176
      * Hamiltonian:
        H0-scaling (s, p, d)           1.850000    2.230000    2.230000
        zeta-weighting                 0.500000
      * Dispersion:
        s8                             2.700000
        a1                             0.520000
        a2                             5.000000
        s9                             5.000000
      * Repulsion:
        kExp                           1.500000    1.000000
        rExp                           1.000000
      * Coulomb:
        alpha                          2.000000
        third order                    shell-resolved
        anisotropic                    true
        a3                             3.000000
        a5                             4.000000
        cn-shift                       1.200000
        cn-exp                         4.000000
        max-rad                        5.000000

      * Solvation model:               ALPB
        Solvent                        toluene
        Parameter file                 internal GFN2-xTB/ALPB
        Dielectric constant                7.0000E+00
        Reference state                gsolv [1 M gas/solution]
        Free energy shift                  2.2081E-03 Eh       1.3856E+00 kcal/mol
        Temperature                        2.9815E+02 K
        Density                            8.6700E-01 kg/L
        Solvent mass                       7.8110E+01 g/mol
        Interaction kernel             P16
        Born radius scaling (c1)           1.7172E+00
        Born radii integrator          GBOBC
        Born offset                        0.0000E+00 a0       0.0000E+00 AA
        H-bond correction              false
        Ion screening                  false
        Surface tension                    1.0000E-05 Eh       1.5569E+01 dyn/cm
        Grid points                               230 per atom

          ...................................................
          :                      SETUP                      :
          :.................................................:
          :  # basis functions                  36          :
          :  # atomic orbitals                  36          :
          :  # shells                           22          :
          :  # electrons                        40          :
          :  max. iterations                    40          :
          :  Hamiltonian                  GFN2-xTB          :
          :  restarted?                      false          :
          :  GBSA solvation                   true          :
          :  PC potential                    false          :
          :  electronic temp.          300.0000000     K    :
          :  accuracy                    1.0000000          :
          :  -> integral cutoff          0.2500000E+02      :
          :  -> integral neglect         0.1000000E-07      :
          :  -> SCF convergence          0.1000000E-05 Eh   :
          :  -> wf. convergence          0.1000000E-03 e    :
          :  Broyden damping             0.4000000          :
          :  net charge                          0          :
          :  unpaired electrons                  0          :
          ...................................................

 iter      E             dE          RMSdq      gap      omega  full diag
   1    -22.7810003 -0.227810E+02  0.438E+00    3.80       0.0  T
   2    -22.8393593 -0.583590E-01  0.238E+00    3.65       1.0  T
   3    -22.8412665 -0.190715E-02  0.124E+00    3.60       1.0  T
   4    -22.8420006 -0.734119E-03  0.293E-01    3.45       1.0  T
   5    -22.8427291 -0.728479E-03  0.861E-02    3.43       1.0  T
   6    -22.8427341 -0.499493E-05  0.448E-02    3.44       1.0  T
   7    -22.8427387 -0.462094E-05  0.194E-02    3.43       1.3  T
   8    -22.8427402 -0.150676E-05  0.549E-03    3.44       4.7  T
   9    -22.8427403 -0.447467E-07  0.159E-03    3.44      16.2  T
  10    -22.8427403 -0.624769E-08  0.654E-04    3.44      39.5  T
  11    -22.8427403 -0.740208E-09  0.111E-04    3.44     233.0  T

   *** convergence criteria satisfied after 11 iterations ***

         #    Occupation            Energy/Eh            Energy/eV
      -------------------------------------------------------------
         1        2.0000           -0.7200824             -19.5944
       ...           ...                  ...                  ...
        14        2.0000           -0.4862567             -13.2317
        15        2.0000           -0.4819193             -13.1137
        16        2.0000           -0.4694543             -12.7745
        17        2.0000           -0.4519445             -12.2980
        18        2.0000           -0.4244206             -11.5491
        19        2.0000           -0.4195858             -11.4175
        20        2.0000           -0.3868946             -10.5279 (HOMO)
        21                         -0.2605768              -7.0907 (LUMO)
        22                         -0.1985094              -5.4017
        23                          0.0015629               0.0425
        24                          0.0717196               1.9516
        25                          0.1228456               3.3428
       ...                                ...                  ...
        36                          0.6117316              16.6461
      -------------------------------------------------------------
                  HL-Gap            0.1263177 Eh            3.4373 eV
             Fermi-level           -0.3237357 Eh           -8.8093 eV

 SCC (total)                   0 d,  0 h,  0 min,  0.016 sec
 SCC setup                      ...        0 min,  0.000 sec (  2.556%)
 Dispersion                     ...        0 min,  0.000 sec (  1.387%)
 classical contributions        ...        0 min,  0.000 sec (  0.644%)
 integral evaluation            ...        0 min,  0.001 sec (  4.532%)
 iterations                     ...        0 min,  0.011 sec ( 68.472%)
 molecular gradient             ...        0 min,  0.003 sec ( 18.797%)
 printout                       ...        0 min,  0.000 sec (  2.870%)

         :::::::::::::::::::::::::::::::::::::::::::::::::::::
         ::                     SUMMARY                     ::
         :::::::::::::::::::::::::::::::::::::::::::::::::::::
         :: total energy             -22.552662558080 Eh    ::
         :: total w/o Gsasa/hb       -22.543741282921 Eh    ::
         :: gradient norm              0.063000670600 Eh/a0 ::
         :: HOMO-LUMO gap              3.437280307764 eV    ::
         ::.................................................::
         :: SCC energy               -22.842740412356 Eh    ::
         :: -> isotropic ES            0.052201043792 Eh    ::
         :: -> anisotropic ES          0.004767147377 Eh    ::
         :: -> anisotropic XC          0.013701534238 Eh    ::
         :: -> dispersion             -0.008457588329 Eh    ::
         :: -> Gsolv                  -0.012951737389 Eh    ::
         ::    -> Gelec               -0.004030462230 Eh    ::
         ::    -> Gsasa               -0.011129418298 Eh    ::
         ::    -> Ghb                  0.000000000000 Eh    ::
         ::    -> Gshift               0.002208143139 Eh    ::
         :: repulsion energy           0.290077854277 Eh    ::
         :: add. restraining           0.000000000000 Eh    ::
         :: total charge              -0.000000000000 e     ::
         :::::::::::::::::::::::::::::::::::::::::::::::::::::

      ----------------------------------------------------------- 
     |                   =====================                   |
     |                        A N C O P T                        |
     |                   =====================                   |
     |               Approximate Normal Coordinate               |
     |                Rational Function Optimizer                |
      ----------------------------------------------------------- 
      ----------------------------------------------------------- 
     |                   =====================                   |
     |                        A N C O P T                        |
     |                   =====================                   |
     |               Approximate Normal Coordinate               |
     |                Rational Function Optimizer                |
      ----------------------------------------------------------- 

          ...................................................
          :                      SETUP                      :
          :.................................................:
          :   optimization level         verytight          :
          :   max. optcycles                   300          :
          :   ANC micro-cycles                  20          :
          :   degrees of freedom                39          :
          :.................................................:
          :   RF solver                   davidson          :
          :   write xtbopt.log                true          :
          :   linear?                        false          :
          :   energy convergence         0.1000000E-06 Eh   :
          :   grad. convergence          0.2000000E-03 Eh/α :
          :   maxmium RF displ.          1.0000000          :
          :   Hlow (freq-cutoff)         0.1000000E-01      :
          :   Hmax (freq-cutoff)         5.0000000          :
          :   S6 in model hess.         20.0000000          :
          ...................................................

generating ANC from exact Hessian ...
Using Lindh-Hessian (1995)
 Shifting diagonal of input Hessian by   7.497084384608116E-003
 Lowest  eigenvalues of input Hessian
    0.000000    0.000000    0.000000    0.000000    0.000000    0.000000
    0.010000    0.011807    0.014804    0.019955    0.022653    0.027082
    0.045152    0.053527    0.060881    0.062711    0.066551    0.076904
 Highest eigenvalues
    1.256190    1.293522    1.693513    1.869833    2.241816    2.340679
 

........................................................................
.............................. CYCLE    1 ..............................
........................................................................

 iter      E             dE          RMSdq      gap      omega  full diag
   1    -22.8427403 -0.228427E+02  0.459E-05    3.44       0.0  T
   2    -22.8427403 -0.255440E-11  0.245E-05    3.44    1053.3  T
   3    -22.8427403 -0.426326E-13  0.117E-05    3.44    2197.8  T
     SCC iter.                  ...        0 min,  0.002 sec
     gradient                   ...        0 min,  0.001 sec
 * total energy  :   -22.5526626 Eh     change       -0.3625544E-10 Eh
   gradient norm :     0.0630010 Eh/α   predicted     0.0000000E+00 (-100.00%)
   displ. norm   :     0.1558638 α      lambda       -0.4470068E-02
   maximum displ.:     0.0652811 α      in ANC's #6, #12, #16, ...

........................................................................
.............................. CYCLE    2 ..............................
........................................................................

 iter      E             dE          RMSdq      gap      omega  full diag
   1    -22.8438204 -0.228438E+02  0.219E-01    3.49       0.0  T
   2    -22.8438410 -0.205948E-04  0.123E-01    3.52       1.0  T
   3    -22.8438318  0.914839E-05  0.491E-02    3.50       1.0  T
   4    -22.8438454 -0.135627E-04  0.567E-03    3.52       4.5  T
   5    -22.8438456 -0.213787E-06  0.255E-03    3.51      10.1  T
   6    -22.8438456 -0.748597E-08  0.115E-03    3.51      22.4  T
   7    -22.8438456 -0.161307E-08  0.292E-04    3.51      88.5  T
   8    -22.8438456 -0.130211E-09  0.131E-04    3.51     197.5  T
     SCC iter.                  ...        0 min,  0.003 sec
     gradient                   ...        0 min,  0.001 sec
 * total energy  :   -22.5555930 Eh     change       -0.2930455E-02 Eh
   gradient norm :     0.0232200 Eh/α   predicted    -0.2289333E-02 ( -21.88%)
   displ. norm   :     0.1201129 α      lambda       -0.1050485E-02
   maximum displ.:     0.0556909 α      in ANC's #3, #5, #6, ...

........................................................................
.............................. CYCLE    3 ..............................
........................................................................

 iter      E             dE          RMSdq      gap      omega  full diag
   1    -22.8447578 -0.228448E+02  0.105E-01    3.57       0.0  T
   2    -22.8447699 -0.120939E-04  0.558E-02    3.58       1.0  T
   3    -22.8447691  0.816211E-06  0.303E-02    3.57       1.0  T
   4    -22.8447726 -0.351237E-05  0.418E-03    3.57       6.2  T
   5    -22.8447727 -0.896432E-07  0.181E-03    3.57      14.2  T
   6    -22.8447727 -0.411334E-08  0.538E-04    3.57      48.0  T
   7    -22.8447727 -0.363023E-09  0.227E-04    3.57     113.7  T
     SCC iter.                  ...        0 min,  0.004 sec
     gradient                   ...        0 min,  0.001 sec
 * total energy  :   -22.5562094 Eh     change       -0.6163502E-03 Eh
   gradient norm :     0.0059227 Eh/α   predicted    -0.5328212E-03 ( -13.55%)
   displ. norm   :     0.0585318 α      lambda       -0.1150099E-03
   maximum displ.:     0.0302531 α      in ANC's #3, #5, #4, ...

........................................................................
.............................. CYCLE    4 ..............................
........................................................................

 iter      E             dE          RMSdq      gap      omega  full diag
   1    -22.8447981 -0.228448E+02  0.321E-02    3.59       0.0  T
   2    -22.8447992 -0.103249E-05  0.179E-02    3.59       1.4  T
   3    -22.8447990  0.131425E-06  0.826E-03    3.59       3.1  T
   4    -22.8447994 -0.323744E-06  0.142E-03    3.59      18.1  T
   5    -22.8447994 -0.757409E-08  0.648E-04    3.59      39.8  T
   6    -22.8447994 -0.648960E-09  0.191E-04    3.59     135.5  T
     SCC iter.                  ...        0 min,  0.003 sec
     gradient                   ...        0 min,  0.002 sec
 * total energy  :   -22.5562873 Eh     change       -0.7798400E-04 Eh
   gradient norm :     0.0043948 Eh/α   predicted    -0.5770397E-04 ( -26.01%)
   displ. norm   :     0.0497003 α      lambda       -0.5003077E-04
   maximum displ.:     0.0261131 α      in ANC's #5, #3, #2, ...

........................................................................
.............................. CYCLE    5 ..............................
........................................................................

 iter      E             dE          RMSdq      gap      omega  full diag
   1    -22.8447635 -0.228448E+02  0.240E-02    3.59       0.0  T
   2    -22.8447639 -0.440484E-06  0.138E-02    3.59       1.9  T
   3    -22.8447639 -0.336641E-07  0.281E-03    3.59       9.2  T
   4    -22.8447640 -0.669177E-08  0.868E-04    3.59      29.7  T
   5    -22.8447640 -0.315676E-08  0.447E-04    3.59      57.8  T
     SCC iter.                  ...        0 min,  0.002 sec
     gradient                   ...        0 min,  0.001 sec
 * total energy  :   -22.5563194 Eh     change       -0.3203941E-04 Eh
   gradient norm :     0.0025042 Eh/α   predicted    -0.2507673E-04 ( -21.73%)
   displ. norm   :     0.0285832 α      lambda       -0.1418035E-04
   maximum displ.:     0.0152981 α      in ANC's #2, #5, #4, ...

........................................................................
.............................. CYCLE    6 ..............................
........................................................................

 iter      E             dE          RMSdq      gap      omega  full diag
   1    -22.8447700 -0.228448E+02  0.139E-02    3.59       0.0  T
   2    -22.8447701 -0.157198E-06  0.793E-03    3.59       3.3  T
   3    -22.8447701  0.130337E-07  0.295E-03    3.59       8.8  T
   4    -22.8447702 -0.408122E-07  0.882E-04    3.59      29.3  T
   5    -22.8447702 -0.340014E-08  0.300E-04    3.59      86.2  T
     SCC iter.                  ...        0 min,  0.003 sec
     gradient                   ...        0 min,  0.001 sec
 * total energy  :   -22.5563288 Eh     change       -0.9374970E-05 Eh
   gradient norm :     0.0009160 Eh/α   predicted    -0.7095834E-05 ( -24.31%)
   displ. norm   :     0.0310686 α      lambda       -0.5021565E-05
   maximum displ.:     0.0194152 α      in ANC's #2, #4, #1, ...

........................................................................
.............................. CYCLE    7 ..............................
........................................................................

 iter      E             dE          RMSdq      gap      omega  full diag
   1    -22.8447788 -0.228448E+02  0.167E-02    3.59       0.0  T
   2    -22.8447789 -0.127542E-06  0.970E-03    3.59       2.7  T
   3    -22.8447788  0.380943E-07  0.329E-03    3.59       7.9  T
   4    -22.8447789 -0.744196E-07  0.759E-04    3.59      34.0  T
   5    -22.8447789 -0.177872E-08  0.323E-04    3.59      79.9  T
     SCC iter.                  ...        0 min,  0.002 sec
     gradient                   ...        0 min,  0.001 sec
 * total energy  :   -22.5563324 Eh     change       -0.3645098E-05 Eh
   gradient norm :     0.0008482 Eh/α   predicted    -0.2511352E-05 ( -31.10%)
   displ. norm   :     0.0125399 α      lambda       -0.1327308E-05
   maximum displ.:     0.0082563 α      in ANC's #2, #1, #3, ...

........................................................................
.............................. CYCLE    8 ..............................
........................................................................

 iter      E             dE          RMSdq      gap      omega  full diag
   1    -22.8447714 -0.228448E+02  0.692E-03    3.59       0.0  T
   2    -22.8447714 -0.188012E-07  0.397E-03    3.59       6.5  T
   3    -22.8447714 -0.116333E-08  0.624E-04    3.59      41.4  T
   4    -22.8447714 -0.177655E-08  0.260E-04    3.59      99.3  T
     SCC iter.                  ...        0 min,  0.001 sec
     gradient                   ...        0 min,  0.001 sec
 * total energy  :   -22.5563340 Eh     change       -0.1559033E-05 Eh
   gradient norm :     0.0004473 Eh/α   predicted    -0.6638887E-06 ( -57.42%)
   displ. norm   :     0.0313544 α      lambda       -0.2232813E-05
   maximum displ.:     0.0205787 α      in ANC's #1, #2, #4, ...

........................................................................
.............................. CYCLE    9 ..............................
........................................................................

 iter      E             dE          RMSdq      gap      omega  full diag
   1    -22.8447599 -0.228448E+02  0.167E-02    3.59       0.0  T
   2    -22.8447599 -0.565588E-07  0.976E-03    3.59       2.6  T
   3    -22.8447599  0.159960E-08  0.131E-03    3.59      19.6  T
   4    -22.8447599 -0.131366E-07  0.516E-04    3.59      50.0  T
   5    -22.8447599 -0.129802E-08  0.183E-04    3.59     141.4  T
     SCC iter.                  ...        0 min,  0.003 sec
     gradient                   ...        0 min,  0.001 sec
 * total energy  :   -22.5563365 Eh     change       -0.2497099E-05 Eh
   gradient norm :     0.0004952 Eh/α   predicted    -0.1115847E-05 ( -55.31%)
   displ. norm   :     0.0526663 α      lambda       -0.2797938E-05
   maximum displ.:     0.0354449 α      in ANC's #1, #2, #4, ...

........................................................................
.............................. CYCLE   10 ..............................
........................................................................

 iter      E             dE          RMSdq      gap      omega  full diag
   1    -22.8447162 -0.228447E+02  0.258E-02    3.59       0.0  T
   2    -22.8447163 -0.966073E-07  0.150E-02    3.59       1.7  T
   3    -22.8447163 -0.203364E-07  0.132E-03    3.59      19.6  T
   4    -22.8447164 -0.109839E-07  0.660E-04    3.59      39.1  T
   5    -22.8447164 -0.122426E-08  0.239E-04    3.59     108.2  T
     SCC iter.                  ...        0 min,  0.002 sec
     gradient                   ...        0 min,  0.001 sec
 * total energy  :   -22.5563401 Eh     change       -0.3662044E-05 Eh
   gradient norm :     0.0009188 Eh/α   predicted    -0.1401377E-05 ( -61.73%)
   displ. norm   :     0.1702491 α      lambda       -0.8452556E-05
   maximum displ.:     0.1174108 α      in ANC's #1, #2, #4, ...

........................................................................
.............................. CYCLE   11 ..............................
........................................................................

 iter      E             dE          RMSdq      gap      omega  full diag
   1    -22.8443351 -0.228443E+02  0.831E-02    3.59       0.0  T
   2    -22.8443358 -0.770767E-06  0.485E-02    3.59       1.0  T
   3    -22.8443361 -0.242529E-06  0.336E-03    3.59       7.7  T
   4    -22.8443361 -0.469816E-07  0.190E-03    3.59      13.6  T
   5    -22.8443361 -0.833725E-08  0.609E-04    3.59      42.4  T
   6    -22.8443361 -0.129546E-08  0.188E-04    3.59     137.2  T
     SCC iter.                  ...        0 min,  0.002 sec
     gradient                   ...        0 min,  0.001 sec
 * total energy  :   -22.5563513 Eh     change       -0.1113076E-04 Eh
   gradient norm :     0.0019363 Eh/α   predicted    -0.4281630E-05 ( -61.53%)
   displ. norm   :     0.6336395 α      lambda       -0.2994273E-04
   maximum displ.:     0.4531469 α      in ANC's #1, #2, #4, ...

........................................................................
.............................. CYCLE   12 ..............................
........................................................................

 iter      E             dE          RMSdq      gap      omega  full diag
   1    -22.8387260 -0.228387E+02  0.303E-01    3.56       0.0  T
   2    -22.8387363 -0.102985E-04  0.177E-01    3.57       1.0  T
   3    -22.8387394 -0.310482E-05  0.126E-02    3.56       2.0  T
   4    -22.8387401 -0.708369E-06  0.722E-03    3.57       3.6  T
   5    -22.8387402 -0.137607E-06  0.248E-03    3.57      10.4  T
   6    -22.8387402 -0.123609E-07  0.597E-04    3.57      43.3  T
   7    -22.8387402 -0.299750E-09  0.269E-04    3.57      96.1  T
     SCC iter.                  ...        0 min,  0.003 sec
     gradient                   ...        0 min,  0.002 sec
 * total energy  :   -22.5562690 Eh     change        0.8224746E-04 Eh
   gradient norm :     0.0104411 Eh/α   predicted    -0.1763497E-04 (-121.44%)
   displ. norm   :     0.2670113 α      lambda       -0.2064976E-03
   maximum displ.:     0.1853701 α      in ANC's #1, #2, #4, ...

........................................................................
.............................. CYCLE   13 ..............................
........................................................................

 iter      E             dE          RMSdq      gap      omega  full diag
   1    -22.8431689 -0.228432E+02  0.132E-01    3.58       0.0  T
   2    -22.8431713 -0.240987E-05  0.766E-02    3.58       1.0  T
   3    -22.8431719 -0.589069E-06  0.600E-03    3.58       4.3  T
   4    -22.8431721 -0.176225E-06  0.311E-03    3.58       8.3  T
   5    -22.8431721 -0.199732E-07  0.133E-03    3.58      19.3  T
   6    -22.8431721 -0.351842E-08  0.341E-04    3.58      75.7  T
   7    -22.8431721 -0.442679E-09  0.178E-04    3.58     145.4  T
     SCC iter.                  ...        0 min,  0.003 sec
     gradient                   ...        0 min,  0.001 sec
 * total energy  :   -22.5563748 Eh     change       -0.1057764E-03 Eh
   gradient norm :     0.0041118 Eh/α   predicted    -0.1106144E-03 (   4.57%)
   displ. norm   :     0.0172521 α      lambda       -0.1981139E-04
   maximum displ.:     0.0140097 α      in ANC's #1, #3, #5, ...

........................................................................
.............................. CYCLE   14 ..............................
........................................................................

 iter      E             dE          RMSdq      gap      omega  full diag
   1    -22.8440240 -0.228440E+02  0.900E-03    3.58       0.0  T
   2    -22.8440241 -0.449370E-07  0.510E-03    3.58       5.1  T
   3    -22.8440241  0.219939E-08  0.122E-03    3.58      21.1  T
   4    -22.8440241 -0.828628E-08  0.376E-04    3.58      68.7  T
   5    -22.8440241 -0.520018E-09  0.167E-04    3.58     155.0  T
     SCC iter.                  ...        0 min,  0.003 sec
     gradient                   ...        0 min,  0.002 sec
 * total energy  :   -22.5563918 Eh     change       -0.1704114E-04 Eh
   gradient norm :     0.0030554 Eh/α   predicted    -0.9909274E-05 ( -41.85%)
   displ. norm   :     0.0977579 α      lambda       -0.5237807E-04
   maximum displ.:     0.0870681 α      in ANC's #1, #4, #5, ...

........................................................................
.............................. CYCLE   15 ..............................
........................................................................

 iter      E             dE          RMSdq      gap      omega  full diag
   1    -22.8458108 -0.228458E+02  0.404E-02    3.59       0.0  T
   2    -22.8458112 -0.342142E-06  0.234E-02    3.59       1.1  T
   3    -22.8458112 -0.234311E-08  0.302E-03    3.59       8.6  T
   4    -22.8458112 -0.636087E-07  0.118E-03    3.59      21.9  T
   5    -22.8458112 -0.531627E-08  0.527E-04    3.59      49.0  T
   6    -22.8458112 -0.205532E-09  0.162E-04    3.59     158.9  T
     SCC iter.                  ...        0 min,  0.002 sec
     gradient                   ...        0 min,  0.003 sec
 * total energy  :   -22.5564298 Eh     change       -0.3792729E-04 Eh
   gradient norm :     0.0019674 Eh/α   predicted    -0.2644047E-04 ( -30.29%)
   displ. norm   :     0.2429151 α      lambda       -0.4441098E-04
   maximum displ.:     0.2121224 α      in ANC's #1, #4, #2, ...

........................................................................
.............................. CYCLE   16 ..............................
........................................................................

 iter      E             dE          RMSdq      gap      omega  full diag
   1    -22.8465561 -0.228466E+02  0.994E-02    3.59       0.0  T
   2    -22.8465569 -0.727206E-06  0.580E-02    3.58       1.0  T
   3    -22.8465571 -0.231199E-06  0.358E-03    3.58       7.2  T
   4    -22.8465572 -0.610448E-07  0.200E-03    3.58      12.9  T
   5    -22.8465572 -0.964462E-08  0.791E-04    3.58      32.6  T
   6    -22.8465572 -0.130304E-08  0.193E-04    3.58     133.7  T
     SCC iter.                  ...        0 min,  0.002 sec
     gradient                   ...        0 min,  0.001 sec
 * total energy  :   -22.5564950 Eh     change       -0.6522045E-04 Eh
   gradient norm :     0.0030911 Eh/α   predicted    -0.2278386E-04 ( -65.07%)
   displ. norm   :     0.9839997 α      lambda       -0.2753203E-03
   maximum displ.:     0.8612908 α      in ANC's #1, #4, #2, ...

........................................................................
.............................. CYCLE   17 ..............................
........................................................................

 iter      E             dE          RMSdq      gap      omega  full diag
   1    -22.8388876 -0.228389E+02  0.401E-01    3.54       0.0  T
   2    -22.8389016 -0.139976E-04  0.234E-01    3.54       1.0  T
   3    -22.8389040 -0.244966E-05  0.184E-02    3.53       1.4  T
   4    -22.8389069 -0.286561E-05  0.788E-03    3.54       3.3  T
   5    -22.8389070 -0.776023E-07  0.304E-03    3.54       8.5  T
   6    -22.8389070 -0.163523E-07  0.777E-04    3.54      33.2  T
   7    -22.8389070 -0.837211E-09  0.432E-04    3.54      59.8  T
     SCC iter.                  ...        0 min,  0.002 sec
     gradient                   ...        0 min,  0.005 sec
 * total energy  :   -22.5565133 Eh     change       -0.1834043E-04 Eh
   gradient norm :     0.0181442 Eh/α   predicted    -0.2709890E-03 (1377.55%)
   displ. norm   :     0.3749723 α      lambda       -0.4825240E-03
   maximum displ.:     0.3223813 α      in ANC's #1, #4, #2, ...

........................................................................
.............................. CYCLE   18 ..............................
........................................................................

 iter      E             dE          RMSdq      gap      omega  full diag
   1    -22.8457046 -0.228457E+02  0.165E-01    3.58       0.0  T
   2    -22.8457099 -0.532589E-05  0.963E-02    3.58       1.0  T
   3    -22.8457090  0.924065E-06  0.151E-02    3.58       1.7  T
   4    -22.8457112 -0.218066E-05  0.361E-03    3.58       7.1  T
   5    -22.8457112 -0.185775E-07  0.200E-03    3.58      12.9  T
   6    -22.8457112 -0.374159E-08  0.487E-04    3.58      53.0  T
   7    -22.8457112 -0.709463E-09  0.245E-04    3.58     105.4  T
     SCC iter.                  ...        0 min,  0.008 sec
     gradient                   ...        0 min,  0.004 sec
 * total energy  :   -22.5566750 Eh     change       -0.1616470E-03 Eh
   gradient norm :     0.0059269 Eh/α   predicted    -0.2751822E-03 (  70.24%)
   displ. norm   :     0.2316722 α      lambda       -0.8055442E-04
   maximum displ.:     0.1888193 α      in ANC's #1, #2, #4, ...

........................................................................
.............................. CYCLE   19 ..............................
........................................................................

 iter      E             dE          RMSdq      gap      omega  full diag
   1    -22.8457959 -0.228458E+02  0.100E-01    3.57       0.0  T
   2    -22.8457967 -0.773941E-06  0.587E-02    3.57       1.0  T
   3    -22.8457970 -0.304257E-06  0.289E-03    3.57       8.9  T
   4    -22.8457970 -0.102837E-07  0.163E-03    3.57      15.8  T
   5    -22.8457970 -0.100425E-08  0.582E-04    3.57      44.4  T
   6    -22.8457970 -0.183265E-08  0.193E-04    3.57     133.9  T
     SCC iter.                  ...        0 min,  0.004 sec
     gradient                   ...        0 min,  0.001 sec
 * total energy  :   -22.5567549 Eh     change       -0.7992253E-04 Eh
   gradient norm :     0.0068622 Eh/α   predicted    -0.4243865E-04 ( -46.90%)
   displ. norm   :     0.9655719 α      lambda       -0.3458617E-03
   maximum displ.:     0.7973874 α      in ANC's #1, #2, #4, ...

........................................................................
.............................. CYCLE   20 ..............................
........................................................................

 iter      E             dE          RMSdq      gap      omega  full diag
   1    -22.8357913 -0.228358E+02  0.418E-01    3.50       0.0  T
   2    -22.8358102 -0.189854E-04  0.244E-01    3.51       1.0  T
   3    -22.8358137 -0.345763E-05  0.197E-02    3.51       1.3  T
   4    -22.8358165 -0.276785E-05  0.833E-03    3.51       3.1  T
   5    -22.8358165 -0.787548E-07  0.410E-03    3.51       6.3  T
   6    -22.8358166 -0.363824E-07  0.983E-04    3.51      26.3  T
   7    -22.8358166 -0.229195E-08  0.536E-04    3.51      48.2  T
     SCC iter.                  ...        0 min,  0.004 sec
     gradient                   ...        0 min,  0.001 sec
 * total energy  :   -22.5566355 Eh     change        0.1193860E-03 Eh
   gradient norm :     0.0250547 Eh/α   predicted    -0.3342095E-03 (-379.94%)
   displ. norm   :     0.3517397 α      lambda       -0.9076658E-03
   maximum displ.:     0.2854328 α      in ANC's #1, #2, #4, ...
 * RMSD in coord.:     0.6453558 α      energy gain  -0.3972940E-02 Eh

generating ANC from exact Hessian ...
Using Lindh-Hessian (1995)
 Shifting diagonal of input Hessian by   7.581303121311244E-003
 Lowest  eigenvalues of input Hessian
    0.000000    0.000000    0.000000    0.000000    0.000000    0.000000
    0.010000    0.011693    0.014715    0.019990    0.024708    0.025344
    0.045758    0.053370    0.058560    0.060999    0.062036    0.077812
 Highest eigenvalues
    1.211625    1.255892    1.681064    1.851921    2.264097    2.373152
 

........................................................................
.............................. CYCLE   21 ..............................
........................................................................

 iter      E             dE          RMSdq      gap      omega  full diag
   1    -22.8465143 -0.228465E+02  0.166E-01    3.55       0.0  T
   2    -22.8465222 -0.791517E-05  0.963E-02    3.55       1.0  T
   3    -22.8465213  0.935870E-06  0.180E-02    3.56       1.4  T
   4    -22.8465239 -0.263064E-05  0.442E-03    3.56       5.8  T
   5    -22.8465240 -0.399989E-07  0.225E-03    3.56      11.5  T
   6    -22.8465240 -0.475189E-08  0.590E-04    3.56      43.7  T
   7    -22.8465240 -0.645606E-09  0.263E-04    3.56      98.2  T
     SCC iter.                  ...        0 min,  0.004 sec
     gradient                   ...        0 min,  0.001 sec
 * total energy  :   -22.5569825 Eh     change       -0.3469774E-03 Eh
   gradient norm :     0.0112248 Eh/α   predicted     0.0000000E+00 (-100.00%)
   displ. norm   :     0.0529674 α      lambda       -0.1655411E-03
   maximum displ.:     0.0439226 α      in ANC's #1, #6, #9, ...

........................................................................
.............................. CYCLE   22 ..............................
........................................................................

 iter      E             dE          RMSdq      gap      omega  full diag
   1    -22.8459829 -0.228460E+02  0.345E-02    3.57       0.0  T
   2    -22.8459849 -0.208350E-05  0.198E-02    3.57       1.3  T
   3    -22.8459850 -0.688644E-07  0.794E-03    3.57       3.3  T
   4    -22.8459851 -0.727445E-07  0.177E-03    3.57      14.6  T
   5    -22.8459851 -0.205046E-07  0.815E-04    3.57      31.7  T
   6    -22.8459851 -0.169751E-08  0.304E-04    3.57      84.9  T
     SCC iter.                  ...        0 min,  0.002 sec
     gradient                   ...        0 min,  0.001 sec
 * total energy  :   -22.5570809 Eh     change       -0.9841119E-04 Eh
   gradient norm :     0.0028658 Eh/α   predicted    -0.8300265E-04 ( -15.66%)
   displ. norm   :     0.0449967 α      lambda       -0.3319182E-04
   maximum displ.:     0.0364217 α      in ANC's #1, #2, #4, ...

........................................................................
.............................. CYCLE   23 ..............................
........................................................................

 iter      E             dE          RMSdq      gap      omega  full diag
   1    -22.8456269 -0.228456E+02  0.211E-02    3.58       0.0  T
   2    -22.8456273 -0.415556E-06  0.121E-02    3.58       2.1  T
   3    -22.8456273  0.892795E-08  0.398E-03    3.58       6.5  T
   4    -22.8456273 -0.390581E-07  0.939E-04    3.58      27.5  T
   5    -22.8456273 -0.726767E-08  0.361E-04    3.58      71.5  T
     SCC iter.                  ...        0 min,  0.003 sec
     gradient                   ...        0 min,  0.001 sec
 * total energy  :   -22.5571053 Eh     change       -0.2437078E-04 Eh
   gradient norm :     0.0012269 Eh/α   predicted    -0.1662897E-04 ( -31.77%)
   displ. norm   :     0.1103732 α      lambda       -0.3088880E-04
   maximum displ.:     0.0875981 α      in ANC's #1, #2, #4, ...

........................................................................
.............................. CYCLE   24 ..............................
........................................................................

 iter      E             dE          RMSdq      gap      omega  full diag
   1    -22.8451168 -0.228451E+02  0.497E-02    3.59       0.0  T
   2    -22.8451174 -0.554739E-06  0.289E-02    3.59       1.0  T
   3    -22.8451173  0.558834E-07  0.485E-03    3.58       5.3  T
   4    -22.8451175 -0.157058E-06  0.137E-03    3.59      18.8  T
   5    -22.8451175 -0.975696E-08  0.679E-04    3.59      38.0  T
   6    -22.8451175 -0.571355E-09  0.164E-04    3.59     157.2  T
     SCC iter.                  ...        0 min,  0.004 sec
     gradient                   ...        0 min,  0.001 sec
 * total energy  :   -22.5571419 Eh     change       -0.3664740E-04 Eh
   gradient norm :     0.0038850 Eh/α   predicted    -0.1552727E-04 ( -57.63%)
   displ. norm   :     0.1028346 α      lambda       -0.4073880E-04
   maximum displ.:     0.0784898 α      in ANC's #1, #2, #4, ...

........................................................................
.............................. CYCLE   25 ..............................
........................................................................

 iter      E             dE          RMSdq      gap      omega  full diag
   1    -22.8449737 -0.228450E+02  0.465E-02    3.58       0.0  T
   2    -22.8449739 -0.182813E-06  0.272E-02    3.58       1.0  T
   3    -22.8449740 -0.595542E-07  0.177E-03    3.58      14.6  T
   4    -22.8449740 -0.123526E-07  0.939E-04    3.58      27.5  T
   5    -22.8449740 -0.160211E-08  0.439E-04    3.58      58.9  T
     SCC iter.                  ...        0 min,  0.002 sec
     gradient                   ...        0 min,  0.001 sec
 * total energy  :   -22.5571801 Eh     change       -0.3824274E-04 Eh
   gradient norm :     0.0038020 Eh/α   predicted    -0.2058553E-04 ( -46.17%)
   displ. norm   :     0.2020382 α      lambda       -0.8106352E-04
   maximum displ.:     0.1500311 α      in ANC's #1, #2, #4, ...

........................................................................
.............................. CYCLE   26 ..............................
........................................................................

 iter      E             dE          RMSdq      gap      omega  full diag
   1    -22.8446924 -0.228447E+02  0.931E-02    3.58       0.0  T
   2    -22.8446932 -0.763278E-06  0.544E-02    3.58       1.0  T
   3    -22.8446934 -0.255628E-06  0.327E-03    3.58       7.9  T
   4    -22.8446935 -0.352873E-07  0.179E-03    3.58      14.4  T
   5    -22.8446935 -0.323754E-08  0.767E-04    3.58      33.7  T
   6    -22.8446935 -0.212697E-08  0.224E-04    3.58     115.5  T
     SCC iter.                  ...        0 min,  0.002 sec
     gradient                   ...        0 min,  0.001 sec
 * total energy  :   -22.5572523 Eh     change       -0.7211702E-04 Eh
   gradient norm :     0.0027509 Eh/α   predicted    -0.4218652E-04 ( -41.50%)
   displ. norm   :     0.2663405 α      lambda       -0.9530234E-04
   maximum displ.:     0.1982670 α      in ANC's #1, #2, #4, ...

........................................................................
.............................. CYCLE   27 ..............................
........................................................................

 iter      E             dE          RMSdq      gap      omega  full diag
   1    -22.8440873 -0.228441E+02  0.121E-01    3.57       0.0  T
   2    -22.8440888 -0.149047E-05  0.707E-02    3.57       1.0  T
   3    -22.8440893 -0.474523E-06  0.461E-03    3.57       5.6  T
   4    -22.8440893 -0.722764E-07  0.248E-03    3.57      10.4  T
   5    -22.8440893 -0.698181E-08  0.115E-03    3.57      22.4  T
   6    -22.8440894 -0.486920E-08  0.311E-04    3.57      83.0  T
   7    -22.8440894 -0.167532E-09  0.167E-04    3.57     155.0  T
     SCC iter.                  ...        0 min,  0.002 sec
     gradient                   ...        0 min,  0.002 sec
 * total energy  :   -22.5573285 Eh     change       -0.7619865E-04 Eh
   gradient norm :     0.0036700 Eh/α   predicted    -0.5103214E-04 ( -33.03%)
   displ. norm   :     0.1988567 α      lambda       -0.6813748E-04
   maximum displ.:     0.1511451 α      in ANC's #1, #2, #4, ...

........................................................................
.............................. CYCLE   28 ..............................
........................................................................

 iter      E             dE          RMSdq      gap      omega  full diag
   1    -22.8443905 -0.228444E+02  0.902E-02    3.57       0.0  T
   2    -22.8443913 -0.817082E-06  0.526E-02    3.57       1.0  T
   3    -22.8443916 -0.220122E-06  0.397E-03    3.57       6.5  T
   4    -22.8443916 -0.886236E-07  0.202E-03    3.57      12.8  T
   5    -22.8443916 -0.902861E-08  0.856E-04    3.57      30.1  T
   6    -22.8443916 -0.134932E-08  0.206E-04    3.57     125.1  T
     SCC iter.                  ...        0 min,  0.002 sec
     gradient                   ...        0 min,  0.001 sec
 * total energy  :   -22.5573835 Eh     change       -0.5503229E-04 Eh
   gradient norm :     0.0036351 Eh/α   predicted    -0.3541485E-04 ( -35.65%)
   displ. norm   :     0.1941195 α      lambda       -0.6984163E-04
   maximum displ.:     0.1505239 α      in ANC's #1, #2, #4, ...

........................................................................
.............................. CYCLE   29 ..............................
........................................................................

 iter      E             dE          RMSdq      gap      omega  full diag
   1    -22.8454581 -0.228455E+02  0.879E-02    3.58       0.0  T
   2    -22.8454591 -0.100188E-05  0.511E-02    3.58       1.0  T
   3    -22.8454593 -0.173463E-06  0.477E-03    3.58       5.4  T
   4    -22.8454594 -0.176615E-06  0.209E-03    3.57      12.4  T
   5    -22.8454594 -0.824562E-08  0.906E-04    3.58      28.5  T
   6    -22.8454594 -0.106166E-08  0.246E-04    3.58     105.0  T
     SCC iter.                  ...        0 min,  0.004 sec
     gradient                   ...        0 min,  0.001 sec
 * total energy  :   -22.5574357 Eh     change       -0.5220219E-04 Eh
   gradient norm :     0.0022652 Eh/α   predicted    -0.3623553E-04 ( -30.59%)
   displ. norm   :     0.1951625 α      lambda       -0.4211970E-04
   maximum displ.:     0.1495676 α      in ANC's #1, #2, #5, ...

........................................................................
.............................. CYCLE   30 ..............................
........................................................................

 iter      E             dE          RMSdq      gap      omega  full diag
   1    -22.8455442 -0.228455E+02  0.928E-02    3.58       0.0  T
   2    -22.8455450 -0.790031E-06  0.540E-02    3.58       1.0  T
   3    -22.8455453 -0.311832E-06  0.297E-03    3.58       8.7  T
   4    -22.8455454 -0.825658E-08  0.169E-03    3.58      15.3  T
   5    -22.8455454 -0.326826E-08  0.665E-04    3.58      38.8  T
   6    -22.8455454 -0.236241E-08  0.165E-04    3.58     156.8  T
     SCC iter.                  ...        0 min,  0.002 sec
     gradient                   ...        0 min,  0.001 sec
 * total energy  :   -22.5574648 Eh     change       -0.2908734E-04 Eh
   gradient norm :     0.0019913 Eh/α   predicted    -0.2186069E-04 ( -24.84%)
   displ. norm   :     0.1759393 α      lambda       -0.2129879E-04
   maximum displ.:     0.1353018 α      in ANC's #1, #2, #5, ...

........................................................................
.............................. CYCLE   31 ..............................
........................................................................

 iter      E             dE          RMSdq      gap      omega  full diag
   1    -22.8464760 -0.228465E+02  0.882E-02    3.58       0.0  T
   2    -22.8464768 -0.852958E-06  0.510E-02    3.58       1.0  T
   3    -22.8464771 -0.287752E-06  0.279E-03    3.58       9.3  T
   4    -22.8464771 -0.607700E-08  0.153E-03    3.58      16.9  T
   5    -22.8464771  0.409973E-09  0.514E-04    3.58      50.2  T
   6    -22.8464771 -0.197432E-08  0.135E-04    3.58     191.1  T
     SCC iter.                  ...        0 min,  0.004 sec
     gradient                   ...        0 min,  0.001 sec
 * total energy  :   -22.5574793 Eh     change       -0.1453804E-04 Eh
   gradient norm :     0.0013671 Eh/α   predicted    -0.1079484E-04 ( -25.75%)
   displ. norm   :     0.0328888 α      lambda       -0.5608793E-05
   maximum displ.:     0.0186413 α      in ANC's #2, #1, #3, ...

........................................................................
.............................. CYCLE   32 ..............................
........................................................................

 iter      E             dE          RMSdq      gap      omega  full diag
   1    -22.8460526 -0.228461E+02  0.203E-02    3.58       0.0  T
   2    -22.8460527 -0.959172E-07  0.119E-02    3.58       2.2  T
   3    -22.8460527  0.427759E-07  0.261E-03    3.58       9.9  T
   4    -22.8460527 -0.675582E-07  0.489E-04    3.58      52.7  T
   5    -22.8460527 -0.447610E-09  0.260E-04    3.58      99.2  T
     SCC iter.                  ...        0 min,  0.003 sec
     gradient                   ...        0 min,  0.001 sec
 * total energy  :   -22.5574848 Eh     change       -0.5507423E-05 Eh
   gradient norm :     0.0006747 Eh/α   predicted    -0.2805603E-05 ( -49.06%)
   displ. norm   :     0.0601642 α      lambda       -0.7027582E-05
   maximum displ.:     0.0324632 α      in ANC's #1, #3, #4, ...

........................................................................
.............................. CYCLE   33 ..............................
........................................................................

 iter      E             dE          RMSdq      gap      omega  full diag
   1    -22.8465819 -0.228466E+02  0.271E-02    3.58       0.0  T
   2    -22.8465821 -0.250991E-06  0.157E-02    3.58       1.6  T
   3    -22.8465821 -0.569030E-08  0.274E-03    3.58       9.4  T
   4    -22.8465822 -0.434000E-07  0.971E-04    3.58      26.6  T
   5    -22.8465822 -0.351492E-08  0.460E-04    3.58      56.1  T
     SCC iter.                  ...        0 min,  0.002 sec
     gradient                   ...        0 min,  0.001 sec
 * total energy  :   -22.5574871 Eh     change       -0.2240551E-05 Eh
   gradient norm :     0.0012126 Eh/α   predicted    -0.3519060E-05 (  57.06%)
   displ. norm   :     0.0617896 α      lambda       -0.4204688E-05
   maximum displ.:     0.0477886 α      in ANC's #1, #2, #4, ...

........................................................................
.............................. CYCLE   34 ..............................
........................................................................

 iter      E             dE          RMSdq      gap      omega  full diag
   1    -22.8456639 -0.228457E+02  0.297E-02    3.58       0.0  T
   2    -22.8456640 -0.168162E-06  0.172E-02    3.58       1.5  T
   3    -22.8456641 -0.296903E-07  0.157E-03    3.58      16.4  T
   4    -22.8456641 -0.114293E-07  0.684E-04    3.58      37.8  T
   5    -22.8456641 -0.860151E-09  0.361E-04    3.58      71.6  T
     SCC iter.                  ...        0 min,  0.003 sec
     gradient                   ...        0 min,  0.001 sec
 * total energy  :   -22.5574889 Eh     change       -0.1843747E-05 Eh
   gradient norm :     0.0009905 Eh/α   predicted    -0.2106977E-05 (  14.28%)
   displ. norm   :     0.0116761 α      lambda       -0.2463107E-05
   maximum displ.:     0.0069024 α      in ANC's #6, #1, #4, ...

........................................................................
.............................. CYCLE   35 ..............................
........................................................................

 iter      E             dE          RMSdq      gap      omega  full diag
   1    -22.8460577 -0.228461E+02  0.782E-03    3.58       0.0  T
   2    -22.8460578 -0.122246E-07  0.460E-03    3.58       5.6  T
   3    -22.8460577  0.127901E-07  0.136E-03    3.58      18.9  T
   4    -22.8460578 -0.176703E-07  0.165E-04    3.58     156.5  T
   5    -22.8460578 -0.309299E-10  0.850E-05    3.58     303.8  T
     SCC iter.                  ...        0 min,  0.002 sec
     gradient                   ...        0 min,  0.001 sec
 * total energy  :   -22.5574906 Eh     change       -0.1667212E-05 Eh
   gradient norm :     0.0004822 Eh/α   predicted    -0.1232805E-05 ( -26.06%)
   displ. norm   :     0.0112604 α      lambda       -0.8751282E-06
   maximum displ.:     0.0065517 α      in ANC's #3, #5, #2, ...

........................................................................
.............................. CYCLE   36 ..............................
........................................................................

 iter      E             dE          RMSdq      gap      omega  full diag
   1    -22.8462173 -0.228462E+02  0.557E-03    3.58       0.0  T
   2    -22.8462173 -0.746168E-08  0.331E-03    3.58       7.8  T
   3    -22.8462173  0.165875E-08  0.596E-04    3.58      43.3  T
   4    -22.8462173 -0.287720E-08  0.155E-04    3.58     167.0  T
     SCC iter.                  ...        0 min,  0.002 sec
     gradient                   ...        0 min,  0.001 sec
 * total energy  :   -22.5574914 Eh     change       -0.8248853E-06 Eh
   gradient norm :     0.0003359 Eh/α   predicted    -0.4354819E-06 ( -47.21%)
   displ. norm   :     0.0224261 α      lambda       -0.8618109E-06
   maximum displ.:     0.0167127 α      in ANC's #3, #1, #5, ...

........................................................................
.............................. CYCLE   37 ..............................
........................................................................

 iter      E             dE          RMSdq      gap      omega  full diag
   1    -22.8462081 -0.228462E+02  0.991E-03    3.58       0.0  T
   2    -22.8462082 -0.144065E-07  0.571E-03    3.58       4.5  T
   3    -22.8462082 -0.301639E-08  0.536E-04    3.58      48.1  T
   4    -22.8462082 -0.111415E-08  0.259E-04    3.58      99.5  T
     SCC iter.                  ...        0 min,  0.001 sec
     gradient                   ...        0 min,  0.001 sec
 * total energy  :   -22.5574921 Eh     change       -0.7114227E-06 Eh
   gradient norm :     0.0002622 Eh/α   predicted    -0.4308863E-06 ( -39.43%)
   displ. norm   :     0.0125088 α      lambda       -0.2403882E-06
   maximum displ.:     0.0087025 α      in ANC's #1, #3, #2, ...

........................................................................
.............................. CYCLE   38 ..............................
........................................................................

 iter      E             dE          RMSdq      gap      omega  full diag
   1    -22.8461672 -0.228462E+02  0.468E-03    3.58       0.0  T
   2    -22.8461672 -0.982221E-08  0.273E-03    3.58       9.5  T
   3    -22.8461672 -0.369692E-09  0.430E-04    3.58      60.1  T
   4    -22.8461672 -0.605368E-09  0.151E-04    3.58     171.1  T
     SCC iter.                  ...        0 min,  0.002 sec
     gradient                   ...        0 min,  0.001 sec
 * total energy  :   -22.5574923 Eh     change       -0.1686608E-06 Eh
   gradient norm :     0.0001211 Eh/α   predicted    -0.1198015E-06 ( -28.97%)
   displ. norm   :     0.0014506 α      lambda       -0.3720730E-07
   maximum displ.:     0.0008335 α      in ANC's #4, #3, #2, ...

........................................................................
.............................. CYCLE   39 ..............................
........................................................................

 iter      E             dE          RMSdq      gap      omega  full diag
   1    -22.8461588 -0.228462E+02  0.895E-04    3.58       0.0  T
   2    -22.8461588 -0.350038E-09  0.510E-04    3.58      50.7  T
   3    -22.8461588 -0.363087E-11  0.114E-04    3.58     226.8  T
     SCC iter.                  ...        0 min,  0.001 sec
     gradient                   ...        0 min,  0.001 sec
 * total energy  :   -22.5574923 Eh     change       -0.2978707E-07 Eh
   gradient norm :     0.0000730 Eh/α   predicted    -0.1764808E-07 ( -40.75%)
   displ. norm   :     0.0019159 α      lambda       -0.1411229E-07
   maximum displ.:     0.0014860 α      in ANC's #1, #2, #3, ...

   *** GEOMETRY OPTIMIZATION CONVERGED AFTER 39 ITERATIONS ***

------------------------------------------------------------------------
 total energy gain   :        -0.0048298 Eh       -3.0307 kcal/mol
 total RMSD          :         1.0404294 a0        0.5506 Å
 total power (kW/mol):        -0.3251418 (step)  -55.7872 (real)
------------------------------------------------------------------------

 ANCopt (total)                0 d,  0 h,  0 min,  0.227 sec
 optimizer setup                ...        0 min,  0.000 sec (  0.055%)
 model hessian                  ...        0 min,  0.005 sec (  2.244%)
 ANC generation                 ...        0 min,  0.001 sec (  0.509%)
 coordinate transformation      ...        0 min,  0.000 sec (  0.199%)
 single point calculation       ...        0 min,  0.208 sec ( 91.659%)
 optimization log               ...        0 min,  0.003 sec (  1.474%)
 hessian update                 ...        0 min,  0.002 sec (  0.905%)
 rational function              ...        0 min,  0.005 sec (  1.983%)

================
 final structure:
================
15
 xtb: 6.7.1 (edcfbbe)
C           -2.39757244967099        0.64478466014407       -0.71185422623960
C           -1.80604991783714        0.38046280041998        0.67567093328475
C           -0.52055637682269       -0.41214196291674        0.56092375543567
O           -0.42564322231921       -1.59191665565316        0.81151424099653
N            0.54597935800574        0.33552946543144        0.11546938348464
C            1.81251037000146       -0.17232795057521       -0.10869706049155
N            2.81817956761244        0.45370101888887       -0.51485642947028
H           -1.72034012030857        1.23424977569795       -1.32657381776008
H           -3.33565152361262        1.18602329823210       -0.61653541636972
H           -2.59243360629887       -0.29629150829616       -1.22144247894567
H           -2.50987070480350       -0.20518632842492        1.26824856873013
H           -1.61378119097313        1.32491544481759        1.18923348069260
H            0.40090329923331        1.32229543594431       -0.06635495357133
H            1.89622301204974       -1.23193433483533        0.10384510728570
H            2.67008846134390        1.44628473012515       -0.69499317116221
 
 Bond Distances (Angstroems)
 ---------------------------
C1-C2=1.5313         C1-H8=1.0881         C1-H9=1.0872         C1-H10=1.0878        C2-C1=1.5313         C2-C3=1.5146         
C2-H11=1.0906        C2-H12=1.0921        C3-C2=1.5146         C3-O4=1.2098         C3-N5=1.3766         O4-C3=1.2098         
N5-C3=1.3766         N5-C6=1.3828         N5-H13=1.0138        C6-N5=1.3828         C6-N7=1.2523         C6-H14=1.0840        
N7-C6=1.2523         N7-H15=1.0196        H8-C1=1.0881         H9-C1=1.0872         H10-C1=1.0878        H11-C2=1.0906        
H12-C2=1.0921        H13-N5=1.0138        H14-C6=1.0840        H15-N7=1.0196        
 C  H  Rav=1.0883 sigma=0.0026  Rmin=1.0840  Rmax=1.0921     6
 C  C  Rav=1.5229 sigma=0.0084  Rmin=1.5146  Rmax=1.5313     2
 N  H  Rav=1.0167 sigma=0.0029  Rmin=1.0138  Rmax=1.0196     2
 N  C  Rav=1.3372 sigma=0.0601  Rmin=1.2523  Rmax=1.3828     3
 O  C  Rav=1.2098 sigma=0.0000  Rmin=1.2098  Rmax=1.2098     1
 
 selected bond angles (degree)
 --------------------
H8-C1-C2=111.41                H9-C1-C2=109.86                H9-C1-H8=108.47                H10-C1-C2=110.14               
H10-C1-H8=108.39               H10-C1-H9=108.49               C3-C2-C1=110.46                H11-C2-C1=109.62               
H11-C2-C3=107.93               H12-C2-C1=110.17               H12-C2-C3=109.80               H12-C2-H11=108.81              
O4-C3-C2=124.14                N5-C3-C2=113.45                N5-C3-O4=122.40                C6-N5-C3=124.24                
H13-N5-C3=118.41               H13-N5-C6=117.35               N7-C6-N5=127.19                H14-C6-N5=113.45               
H14-C6-N7=119.36               H15-N7-C6=115.30               
 
 selected dihedral angles (degree)
 ---------------------------------
C3-C2-C1-H8=298.42            C3-C2-C1-H9=178.19            C3-C2-C1-H10= 58.73           H11-C2-C1-H8=179.61           
H11-C2-C1-H9= 59.38           H11-C2-C1-H10=299.93          H12-C2-C1-H8= 59.90           H12-C2-C1-H9=299.67           
H12-C2-C1-H10=180.22          O4-C3-C2-C1=255.81            O4-C3-C2-H11= 15.63           O4-C3-C2-H12=134.11           
N5-C3-C2-C1= 74.70            N5-C3-C2-H11=194.53           N5-C3-C2-H12=313.00           C6-N5-C3-C2=182.04            
C6-N5-C3-O4=  0.96            H13-N5-C3-C2=  1.75           H13-N5-C3-O4=180.67           N7-C6-N5-C3=179.82            
N7-C6-N5-H13=  0.10           H14-C6-N5-C3=359.82           H14-C6-N5-H13=180.10          H15-N7-C6-N5=  0.03           
H15-N7-C6-H14=180.03          
           -------------------------------------------------
          |                Final Singlepoint                |
           -------------------------------------------------

          ...................................................
          :                      SETUP                      :
          :.................................................:
          :  # basis functions                  36          :
          :  # atomic orbitals                  36          :
          :  # shells                           22          :
          :  # electrons                        40          :
          :  max. iterations                    40          :
          :  Hamiltonian                  GFN2-xTB          :
          :  restarted?                      false          :
          :  GBSA solvation                   true          :
          :  PC potential                    false          :
          :  electronic temp.          300.0000000     K    :
          :  accuracy                    1.0000000          :
          :  -> integral cutoff          0.2500000E+02      :
          :  -> integral neglect         0.1000000E-07      :
          :  -> SCF convergence          0.1000000E-05 Eh   :
          :  -> wf. convergence          0.1000000E-03 e    :
          :  Broyden damping             0.4000000          :
          :  net charge                          0          :
          :  unpaired electrons                  0          :
          ...................................................

 iter      E             dE          RMSdq      gap      omega  full diag
   1    -22.8461588 -0.228462E+02  0.333E-05    3.58       0.0  T
   2    -22.8461588 -0.281375E-11  0.203E-05    3.58    1271.5  T
   3    -22.8461588 -0.103029E-11  0.108E-05    3.58    2380.5  T

   *** convergence criteria satisfied after 3 iterations ***

         #    Occupation            Energy/Eh            Energy/eV
      -------------------------------------------------------------
         1        2.0000           -0.7230705             -19.6757
       ...           ...                  ...                  ...
        14        2.0000           -0.4857026             -13.2166
        15        2.0000           -0.4826265             -13.1329
        16        2.0000           -0.4754718             -12.9382
        17        2.0000           -0.4594710             -12.5028
        18        2.0000           -0.4264459             -11.6042
        19        2.0000           -0.4226030             -11.4996
        20        2.0000           -0.3922001             -10.6723 (HOMO)
        21                         -0.2606621              -7.0930 (LUMO)
        22                         -0.1966693              -5.3516
        23                          0.0104919               0.2855
        24                          0.0672140               1.8290
        25                          0.1022862               2.7833
       ...                                ...                  ...
        36                          0.6312903              17.1783
      -------------------------------------------------------------
                  HL-Gap            0.1315379 Eh            3.5793 eV
             Fermi-level           -0.3264311 Eh           -8.8826 eV

 SCC (total)                   0 d,  0 h,  0 min,  0.005 sec
 SCC setup                      ...        0 min,  0.001 sec ( 20.036%)
 Dispersion                     ...        0 min,  0.000 sec (  0.898%)
 classical contributions        ...        0 min,  0.000 sec (  0.240%)
 integral evaluation            ...        0 min,  0.000 sec (  9.488%)
 iterations                     ...        0 min,  0.002 sec ( 37.037%)
 molecular gradient             ...        0 min,  0.001 sec ( 28.975%)
 printout                       ...        0 min,  0.000 sec (  2.585%)

         :::::::::::::::::::::::::::::::::::::::::::::::::::::
         ::                     SUMMARY                     ::
         :::::::::::::::::::::::::::::::::::::::::::::::::::::
         :: total energy             -22.557492316669 Eh    ::
         :: total w/o Gsasa/hb       -22.548544145842 Eh    ::
         :: gradient norm              0.000073388641 Eh/a0 ::
         :: HOMO-LUMO gap              3.579329414029 eV    ::
         ::.................................................::
         :: SCC energy               -22.846142703506 Eh    ::
         :: -> isotropic ES            0.051632306283 Eh    ::
         :: -> anisotropic ES          0.004726585589 Eh    ::
         :: -> anisotropic XC          0.013699931984 Eh    ::
         :: -> dispersion             -0.008626637100 Eh    ::
         :: -> Gsolv                  -0.013337637536 Eh    ::
         ::    -> Gelec               -0.004389466709 Eh    ::
         ::    -> Gsasa               -0.011156313966 Eh    ::
         ::    -> Ghb                  0.000000000000 Eh    ::
         ::    -> Gshift               0.002208143139 Eh    ::
         :: repulsion energy           0.288650386837 Eh    ::
         :: add. restraining           0.000000000000 Eh    ::
         :: total charge              -0.000000000000 e     ::
         :::::::::::::::::::::::::::::::::::::::::::::::::::::

           -------------------------------------------------
          |                Property Printout                |
           -------------------------------------------------

    * Orbital Energies and Occupations

         #    Occupation            Energy/Eh            Energy/eV
      -------------------------------------------------------------
         1        2.0000           -0.7230705             -19.6757
       ...           ...                  ...                  ...
         8        2.0000           -0.5682868             -15.4639
         9        2.0000           -0.5587352             -15.2040
        10        2.0000           -0.5511134             -14.9966
        11        2.0000           -0.5194123             -14.1339
        12        2.0000           -0.5168965             -14.0655
        13        2.0000           -0.5043795             -13.7249
        14        2.0000           -0.4857026             -13.2166
        15        2.0000           -0.4826265             -13.1329
        16        2.0000           -0.4754718             -12.9382
        17        2.0000           -0.4594710             -12.5028
        18        2.0000           -0.4264459             -11.6042
        19        2.0000           -0.4226030             -11.4996
        20        2.0000           -0.3922001             -10.6723 (HOMO)
        21                         -0.2606621              -7.0930 (LUMO)
        22                         -0.1966693              -5.3516
        23                          0.0104919               0.2855
        24                          0.0672140               1.8290
        25                          0.1022862               2.7833
        26                          0.1077322               2.9315
        27                          0.1319493               3.5905
        28                          0.1637105               4.4548
        29                          0.1697479               4.6191
        30                          0.1941428               5.2829
        31                          0.2133300               5.8050
       ...                                ...                  ...
        36                          0.6312903              17.1783
      -------------------------------------------------------------
                  HL-Gap            0.1315379 Eh            3.5793 eV
             Fermi-level           -0.3264311 Eh           -8.8826 eV

     #   Z          covCN         q      C6AA      α(0)
     1   6 C        3.753    -0.102    22.513     6.766
     2   6 C        3.804    -0.088    22.180     6.705
     3   6 C        2.755     0.285    22.175     7.711
     4   8 O        0.858    -0.421    22.106     6.304
     5   7 N        2.690    -0.168    24.625     7.370
     6   6 C        2.755     0.148    24.773     8.150
     7   7 N        1.774    -0.340    29.656     8.064
     8   1 H        0.925     0.044     2.401     2.423
     9   1 H        0.925     0.056     2.244     2.343
    10   1 H        0.925     0.048     2.349     2.397
    11   1 H        0.924     0.066     2.126     2.280
    12   1 H        0.924     0.056     2.244     2.343
    13   1 H        0.860     0.197     1.123     1.660
    14   1 H        0.925     0.071     2.074     2.252
    15   1 H        0.860     0.149     1.407     1.858

 Mol. C6AA /au·bohr⁶  :       2058.725731
 Mol. C8AA /au·bohr⁸  :      44742.381661
 Mol. α(0) /au        :         68.625891


Wiberg/Mayer (AO) data.
largest (>0.10) Wiberg bond orders for each atom

 ---------------------------------------------------------------------------
     #   Z sym  total        # sym  WBO       # sym  WBO       # sym  WBO
 ---------------------------------------------------------------------------
     1   6 C    3.992 --     2 C    0.997    10 H    0.988     8 H    0.986
                             9 H    0.983
     2   6 C    3.994 --     1 C    0.997     3 C    0.975    11 H    0.974
                            12 H    0.965
     3   6 C    3.936 --     4 O    1.737     5 N    1.159     2 C    0.975
     4   8 O    2.031 --     3 C    1.737     5 N    0.148
     5   7 N    3.515 --     3 C    1.159     6 C    1.118    13 H    0.925
                             4 O    0.148     7 N    0.129
     6   6 C    3.957 --     7 N    1.868     5 N    1.118    14 H    0.944
     7   7 N    3.024 --     6 C    1.868    15 H    0.944     5 N    0.129
     8   1 H    0.998 --     1 C    0.986
     9   1 H    0.996 --     1 C    0.983
    10   1 H    0.998 --     1 C    0.988
    11   1 H    0.995 --     2 C    0.974
    12   1 H    0.997 --     2 C    0.965
    13   1 H    0.961 --     5 N    0.925
    14   1 H    0.995 --     6 C    0.944
    15   1 H    0.978 --     7 N    0.944
 ---------------------------------------------------------------------------

Topologies differ in total number of bonds
Writing topology from bond orders to xtbtopo.mol

molecular dipole:
                 x           y           z       tot (Debye)
 q only:       -0.716       1.460      -0.261
   full:       -1.114       1.838      -0.224       5.492
molecular quadrupole (traceless):
                xx          xy          yy          xz          yz          zz
 q only:       -0.396      -1.968      -0.344       1.224       2.024       0.739
  q+dip:       -4.585      -1.032       2.991       1.683       2.195       1.594
   full:       -5.108      -1.060       2.098       2.355       2.570       3.011

           -------------------------------------------------
          |                Geometry Summary                 |
           -------------------------------------------------

      molecular mass/u    :      100.1192809
   center of mass at/Å    :       -0.0151763      -0.0429770       0.1099811
  moments of inertia/u·Å² :        0.9802199E+02   0.3277600E+03   0.3947633E+03
rotational constants/cm⁻¹ :        0.1719781E+00   0.5143286E-01   0.4270314E-01

 * 12 selected distances

     #   Z          #   Z                                           value/Å
     1   6 C        2   6 C                                       1.5313365 (max)
     3   6 C        4   8 O                                       1.2098234
     3   6 C        5   7 N                                       1.3765686
     5   7 N        6   6 C                                       1.3828488
     6   6 C        7   7 N                                       1.2522973
     1   6 C        8   1 H                                       1.0881145
     1   6 C        9   1 H                                       1.0872063
     1   6 C       10   1 H                                       1.0877847
     2   6 C       11   1 H                                       1.0906407
     2   6 C       12   1 H                                       1.0921102
     5   7 N       13   1 H                                       1.0138118 (min)
     6   6 C       14   1 H                                       1.0839501

 * 5 distinct bonds (by element types)

   Z      Z             #   av. dist./Å        max./Å        min./Å
   1 H    6 C           6     1.0883011     1.0921102     1.0839501
   6 C    6 C           1     1.5313365     1.5313365     1.5313365
   1 H    7 N           1     1.0138118     1.0138118     1.0138118
   6 C    7 N           3     1.3372382     1.3828488     1.2522973
   6 C    8 O           1     1.2098234     1.2098234     1.2098234


optimized geometry written to: xtbopt.xyz


           -------------------------------------------------
          | TOTAL ENERGY              -22.557492316669 Eh   |
          | GRADIENT NORM               0.000073388641 Eh/α |
          | HOMO-LUMO GAP               3.579329414029 eV   |
           -------------------------------------------------

------------------------------------------------------------------------
 * finished run on 2024/08/07 at 20:58:35.707     
------------------------------------------------------------------------
 total:
 * wall-time:     0 d,  0 h,  0 min,  0.259 sec
 *  cpu-time:     0 d,  0 h,  0 min,  1.927 sec
 * ratio c/w:     7.435 speedup
 SCF:
 * wall-time:     0 d,  0 h,  0 min,  0.016 sec
 *  cpu-time:     0 d,  0 h,  0 min,  0.109 sec
 * ratio c/w:     6.627 speedup
 ANC optimizer:
 * wall-time:     0 d,  0 h,  0 min,  0.233 sec
 *  cpu-time:     0 d,  0 h,  0 min,  1.766 sec
 * ratio c/w:     7.572 speedup

