15
 energy: -22.552662558116 gnorm: 0.063000999336 xtb: 6.7.1 (edcfbbe)
C           -2.75579306080000        0.40771517800000       -0.59028254360000
C           -1.72649935430000        0.57855793840000        0.51109238540000
C           -0.48494870980000       -0.21346367100000        0.22426295560000
O           -0.56934323850000       -1.41195730140000        0.06128701060000
N            0.72476590010000        0.45551379850000        0.14940583350000
C            1.91286868890000       -0.20519273900000       -0.11973297060000
N            3.04280510550000        0.34982465600000       -0.19994367740000
H           -2.36638379700000        0.75976326810000       -1.54678364620000
H           -3.67791278790000        0.95371101260000       -0.38206042510000
H           -3.00980218130000       -0.64608469360000       -0.71707705730000
H           -2.13377025650000        0.24419311380000        1.47198208230000
H           -1.46897033550000        1.63514736670000        0.64233819090000
H            0.75988862320000        1.45904895100000        0.29432174450000
H            1.85485840520000       -1.27158637010000       -0.27070758720000
H            3.12022195430000        1.32325738100000       -0.06450437950000
15
 energy: -22.555593013584 gnorm: 0.023220035711 xtb: 6.7.1 (edcfbbe)
C           -2.74671632937383        0.41068386819270       -0.59326801080514
C           -1.71440726637333        0.59808151244651        0.51047311482527
C           -0.48874365442903       -0.23769804340058        0.22019889905484
O           -0.55753737554978       -1.43814920718113        0.05614561322463
N            0.71080906718971        0.43814751115382        0.14766430626204
C            1.91195015024237       -0.19961030788906       -0.11830556058664
N            3.03750278907206        0.34578020739493       -0.19907068504296
H           -2.36014832071230        0.76815788983483       -1.54741809051748
H           -3.65971463700298        0.95758598027669       -0.36410087626176
H           -2.99406758255791       -0.64479768947473       -0.70383381690059
H           -2.12916359432206        0.24544540989952        1.46035013744889
H           -1.46387198467629        1.65765544300034        0.62944832619262
H            0.73424626641142        1.44094447705759        0.29209236774613
H            1.84386135092158       -1.26709694084115       -0.26761146402601
H            3.09798607676038        1.34331777852973       -0.05916634471383
15
 energy: -22.556209363749 gnorm: 0.005922675614 xtb: 6.7.1 (edcfbbe)
C           -2.74521920997604        0.41718777779632       -0.59531797661628
C           -1.70549096632370        0.60199323088032        0.51011241156339
C           -0.49041499565684       -0.25836907187653        0.22069777660110
O           -0.55202692290263       -1.45711955422400        0.05918498384801
N            0.70210039181028        0.42334923391961        0.14610896510025
C            1.91552025756371       -0.19278874764468       -0.11730510050267
N            3.03901118908564        0.34964553779094       -0.19872470441581
H           -2.35966386735558        0.77577594719645       -1.54774512983913
H           -3.65248217449838        0.96633312220997       -0.35625278673690
H           -2.98857320934991       -0.63777485814628       -0.69819665662885
H           -2.12637026494783        0.25131744539615        1.45641438129691
H           -1.44134677987236        1.65605505841810        0.61461976654727
H            0.71323081982288        1.42642619447445        0.28863695648523
H            1.83924883985903       -1.26282234990368       -0.26342129904949
H            3.07446184834175        1.35923892271285       -0.05521367175303
15
 energy: -22.556287347747 gnorm: 0.004394866331 xtb: 6.7.1 (edcfbbe)
C           -2.74529013317187        0.42004072689031       -0.59555469575022
C           -1.70208174385693        0.59952102992967        0.50947185393734
C           -0.49067063114705       -0.26664216424342        0.22059479395816
O           -0.55201108899598       -1.46515355477787        0.06349808761242
N            0.70062510247036        0.41746094513658        0.14437953500883
C            1.91806756312603       -0.19075056386294       -0.11633356593045
N            3.04064136192234        0.35454417406746       -0.19784524991239
H           -2.36028574943585        0.78090915812167       -1.54699367367132
H           -3.65003374235541        0.97106927196194       -0.35253945159779
H           -2.99017039939657       -0.63387063352024       -0.70022973515090
H           -2.12569275965024        0.25618686277805        1.45657162106070
H           -1.42807726352240        1.65042318701239        0.60816716173228
H            0.70571354129355        1.42113630120811        0.28480874671836
H            1.84037727174888       -1.26215560060611       -0.26065848377586
H            3.06087362657115        1.36572874890439       -0.05373902833917
15
 energy: -22.556319387154 gnorm: 0.002504234053 xtb: 6.7.1 (edcfbbe)
C           -2.74467682392094        0.42250729453880       -0.59564108297309
C           -1.69953246502157        0.59664283386313        0.50864951963767
C           -0.49047716232985       -0.27243408868823        0.22185277914190
O           -0.55310548289926       -1.47098907500568        0.06822471783078
N            0.70087212288215        0.41287486232883        0.14257975118200
C            1.92001211761310       -0.19062104962886       -0.11597821806819
N            3.04101397917728        0.35985975210495       -0.19717757094173
H           -2.36061755896541        0.78663851270538       -1.54624019137864
H           -3.64807010324369        0.97424188430029       -0.34925652456221
H           -2.99172468336757       -0.63048641444622       -0.70438081634598
H           -2.12524613434275        0.26000674732748        1.45697539871493
H           -1.41868260889273        1.64572983966570        0.60430136938684
H            0.70122813139087        1.41711162944002        0.28056489552087
H            1.84392742693678       -1.26309437829378       -0.25760523453927
H            3.04706420058361        1.37045953878819       -0.05327087670589
15
 energy: -22.556328762124 gnorm: 0.000916084722 xtb: 6.7.1 (edcfbbe)
C           -2.74372260332493        0.42405525932333       -0.59566327208889
C           -1.69840063136740        0.59553086613172        0.50827697283648
C           -0.49050668416342       -0.27460963109002        0.22230230597840
O           -0.55419632804606       -1.47348785286476        0.07148434204754
N            0.70148897417032        0.41032853196413        0.14116531926185
C            1.92091540290074       -0.19196017719357       -0.11529815917815
N            3.04026619444204        0.36300053688314       -0.19650269047306
H           -2.36048646578114        0.79097803131322       -1.54563521566082
H           -3.64715895089622        0.97495970576294       -0.34732744904337
H           -2.99136803912929       -0.62862098607714       -0.70781543449818
H           -2.12476088633493        0.26091708262737        1.45711521797562
H           -1.41578555610551        1.64433384916178        0.60396882787803
H            0.69979783279149        1.41487292404167        0.27707918159228
H            1.84769555348293       -1.26474008212947       -0.25545279084045
H            3.03820714296138        1.37288983114571       -0.05409923988729
15
 energy: -22.556332407222 gnorm: 0.000848307427 xtb: 6.7.1 (edcfbbe)
C           -2.74228575277677        0.42599178103377       -0.59598383384307
C           -1.69782295011788        0.59516930151075        0.50845244308701
C           -0.49076476933317       -0.27603798167066        0.22345719688553
O           -0.55544905657583       -1.47526449099275        0.07500447545838
N            0.70188344164273        0.40780416797826        0.13945475754121
C            1.92144843536463       -0.19409126965353       -0.11499944979244
N            3.03870949340746        0.36575910621209       -0.19638880424514
H           -2.35956379211090        0.79651695086467       -1.54484901956867
H           -3.64668944944798        0.97472384294271       -0.34614706786710
H           -2.98903730613636       -0.62664969629569       -0.71200296914814
H           -2.12482183775253        0.25963783617665        1.45687227100314
H           -1.41527741925324        1.64411520495780        0.60618783720831
H            0.69911796400798        1.41265988520169        0.27263046941040
H            1.85264608990461       -1.26724443093021       -0.25163327791896
H            3.02989186477723        1.37535768166446       -0.05645711231045
15
 energy: -22.556333966255 gnorm: 0.000447395934 xtb: 6.7.1 (edcfbbe)
C           -2.74173235417968        0.42670605005464       -0.59640475674298
C           -1.69820083144593        0.59509180925576        0.50916371731480
C           -0.49109706842775       -0.27615788480490        0.22374066921517
O           -0.55555831605233       -1.47557864160508        0.07644620655242
N            0.70142035309635        0.40742338161307        0.13898269058717
C            1.92141917099994       -0.19453722083868       -0.11422642453283
N            3.03819990970330        0.36589260725437       -0.19669549350210
H           -2.35853116015839        0.79876641149426       -1.54443805442916
H           -3.64671929021219        0.97441211481349       -0.34649969721860
H           -2.98740471657373       -0.62599311092477       -0.71376116636109
H           -2.12577020428790        0.25771801930547        1.45671189489367
H           -1.41597897460444        1.64395504171795        0.60849115226899
H            0.69895757697580        1.41247068547847        0.27067416043246
H            1.85360602501214       -1.26776917626417       -0.24974283890710
H            3.02937483575482        1.37604780245013       -0.05884414367081
15
 energy: -22.556336463354 gnorm: 0.000495347491 xtb: 6.7.1 (edcfbbe)
C           -2.74015823102028        0.42843803833391       -0.59761461004212
C           -1.69914016960262        0.59417973978619        0.51110577079019
C           -0.49162034659732       -0.27692200599093        0.22592494586947
O           -0.55555518780140       -1.47666528179178        0.08070846527129
N            0.70015359633854        0.40687061739720        0.13775156816996
C            1.92096957169430       -0.19477198471841       -0.11387954789177
N            3.03709179522434        0.36631831956953       -0.19836530066902
H           -2.35538485681139        0.80432694016997       -1.54343314511566
H           -3.64644685967395        0.97393396951945       -0.34772849772952
H           -2.98377128867774       -0.62425103651319       -0.71868435678836
H           -2.12898137521405        0.25330523324647        1.45634459436351
H           -1.41706173313110        1.64261698602788        0.61416916808814
H            0.69819459875801        1.41239031371469        0.26600492988908
H            1.85495946978448       -1.26865548437102       -0.24462660123052
H            3.02873597233019        1.37733352462007       -0.06407946707470
15
 energy: -22.556340125398 gnorm: 0.000918915032 xtb: 6.7.1 (edcfbbe)
C           -2.73716999904669        0.43135001871062       -0.59958592431912
C           -1.70034538314939        0.59188992715424        0.51417192398959
C           -0.49231305342984       -0.27871095701049        0.22928932656668
O           -0.55517877670901       -1.47921918831869        0.08934444993914
N            0.69827191198383        0.40597406951118        0.13573702150289
C            1.92032132551654       -0.19504704564046       -0.11234317609743
N            3.03537092027859        0.36742406874914       -0.20069260146474
H           -2.34980839902904        0.81385772483997       -1.54168751581085
H           -3.64526255950295        0.97365903601401       -0.34933463391593
H           -2.97844077965377       -0.62105262221108       -0.72774197120761
H           -2.13422977102678        0.24668268407231        1.45592653590048
H           -1.41797580437893        1.63958978892133        0.62296723735786
H            0.69609383270310        1.41233170720819        0.25795559731280
H            1.85645191239672       -1.26974282374540       -0.23746224017072
H            3.02619957864764        1.37946150074514       -0.07294611368307
15
 energy: -22.556351256158 gnorm: 0.001936438077 xtb: 6.7.1 (edcfbbe)
C           -2.72695701111131        0.44079865269470       -0.60596754659930
C           -1.70391080009463        0.58399736699818        0.52387366961318
C           -0.49402866718105       -0.28489795146991        0.24138608340766
O           -0.55304720888725       -1.48765320924097        0.11789054394647
N            0.69249482639060        0.40345053694548        0.12933277074735
C            1.91779264038819       -0.19555406908914       -0.10918993363226
N            3.02963732670163        0.37111712951765       -0.20906612961423
H           -2.33082456749342        0.84389701775289       -1.53610335350920
H           -3.64044555562865        0.97377036332054       -0.35509516315623
H           -2.96201551202683       -0.61029952662487       -0.75708834602616
H           -2.15097117347678        0.22529299267684        1.45445078053449
H           -1.42104089850918        1.62953832701414        0.65116293496700
H            0.68817536848572        1.41223684798666        0.23291699873949
H            1.86036852433783       -1.27311800146772       -0.21400125465435
H            3.01675766370516        1.38587141198554       -0.10090413886394
15
 energy: -22.556269008695 gnorm: 0.010442354104 xtb: 6.7.1 (edcfbbe)
C           -2.68684582836346        0.47573494058496       -0.63006774183645
C           -1.71761932063281        0.55381496163411        0.56039863524014
C           -0.49997055052385       -0.30775570059345        0.28908826243583
O           -0.54341540968547       -1.51828316045636        0.22623091384058
N            0.67098979186532        0.39488721670711        0.10805952482511
C            1.90711563981396       -0.19664731333752       -0.09856687143879
N            3.00732555991369        0.38458424846833       -0.24354937279814
H           -2.25487546481673        0.95109294602260       -1.51481605258070
H           -3.61936857340571        0.97715415155259       -0.38142446023785
H           -2.90123201324135       -0.56917903751528       -0.86463611259741
H           -2.21490752643456        0.14564596719609        1.44824685802914
H           -1.43421211469302        1.59110407105287        0.75692038037047
H            0.65654137618302        1.41160857919698        0.14451187616391
H            1.87158405488870       -1.28345728871386       -0.13084588725861
H            2.98087533473231        1.40814330720081       -0.20595203625733
15
 energy: -22.556374785087 gnorm: 0.004112215522 xtb: 6.7.1 (edcfbbe)
C           -2.70279943317188        0.46112754300163       -0.61989155517540
C           -1.71194031280673        0.56597754600415        0.54503132384326
C           -0.49735994578147       -0.29836348393686        0.26983089223982
O           -0.54673772530753       -1.50522997906440        0.18147254026148
N            0.67966358841503        0.39853308948196        0.11776931171538
C            1.91104273550977       -0.19554564770248       -0.10350206003058
N            3.01616532400553        0.37893177131240       -0.23012518784990
H           -2.28512898013773        0.90411028920972       -1.52323236584562
H           -3.62682635020971        0.97699237039403       -0.37197628658080
H           -2.92651584037287       -0.58560498137552       -0.81840431986686
H           -2.18857229472840        0.17959427586783        1.45021754440243
H           -1.42913982757064        1.60635460839181        0.71225695354929
H            0.66886012284750        1.41131058618769        0.18330949405808
H            1.86563769216547       -1.27780126245884       -0.16734417766650
H            2.99563620274370        1.39806116368686       -0.16181419115414
15
 energy: -22.556391826232 gnorm: 0.003055627803 xtb: 6.7.1 (edcfbbe)
C           -2.70098735958362        0.46149236154555       -0.62023673205632
C           -1.71230670551590        0.56514481719201        0.54563787406576
C           -0.49737409055058       -0.29878835523540        0.27138840816999
O           -0.54571840559230       -1.50548927120448        0.18446207597815
N            0.67904994086220        0.39854977712819        0.11832818817039
C            1.91016952655403       -0.19497165077677       -0.10454373574034
N            3.01518724271939        0.37924062711257       -0.23212385905363
H           -2.28111264364542        0.90309149025775       -1.52233251902352
H           -3.62452546714952        0.97909665263353       -0.37462671538928
H           -2.92593279071207       -0.58428152375247       -0.81877115390862
H           -2.19006638377927        0.17864632716146        1.44943675829274
H           -1.42990279633798        1.60509568855135        0.71393540607440
H            0.66687097751140        1.41075444333723        0.18426238391308
H            1.86451822664963       -1.27674040227242       -0.16807235387709
H            2.99411568417005        1.39760690732189       -0.16314610971579
15
 energy: -22.556429753518 gnorm: 0.001967472269 xtb: 6.7.1 (edcfbbe)
C           -2.69130037334553        0.46544804689882       -0.62383054082102
C           -1.71467476077023        0.55988041914756        0.55080409838886
C           -0.49763889690723       -0.30221175987477        0.28178761018257
O           -0.54141209130203       -1.50895480279489        0.20353900633206
N            0.67568650033639        0.39803734785326        0.11965557724219
C            1.90637318050570       -0.19335644441036       -0.10757840028979
N            3.01009849741203        0.38159207840049       -0.24229432000749
H           -2.26020996151221        0.90619357194060       -1.51916025369939
H           -3.61407059494864        0.98842595435050       -0.38719189674734
H           -2.92088366109873       -0.57682284640783       -0.82740149144608
H           -2.20032763238835        0.16885887587635        1.44683793396462
H           -1.43358897218490        1.59803456658969        0.72819862507831
H            0.65721436501183        1.40918134978618        0.18233704294076
H            1.86130005180940       -1.27421049285167       -0.16603024668083
H            2.98541930498252        1.39835202449606       -0.17607482853749
15
 energy: -22.556494973965 gnorm: 0.003091545522 xtb: 6.7.1 (edcfbbe)
C           -2.66919074321510        0.47684625522789       -0.63347305425870
C           -1.72070553085227        0.54669933164764        0.56509617235183
C           -0.49882735009384       -0.31098700815827        0.30608791380814
O           -0.53284054385296       -1.51915115912107        0.25109290643841
N            0.66728197106557        0.39640579557738        0.11941907191368
C            1.89837885361199       -0.19081579954426       -0.11213896401833
N            2.99826587197616        0.38756159135368       -0.26481728541481
H           -2.21240580945273        0.92330767859629       -1.51236018234518
H           -3.59205226888543        1.00740308952846       -0.41350935929130
H           -2.90638756515025       -0.55910978744444       -0.85533250488911
H           -2.22703888246624        0.14058503316340        1.44222489057373
H           -1.44220070254910        1.58100757969175        0.76781640337152
H            0.63663366269281        1.40727531280502        0.16791277859384
H            1.85719842742397       -1.27194304141649       -0.15273927191050
H            2.96587556534747        1.40336301709300       -0.21168159902333
15
 energy: -22.556513314399 gnorm: 0.018148425928 xtb: 6.7.1 (edcfbbe)
C           -2.57955103142586        0.52279105452877       -0.67275113282282
C           -1.74527503697802        0.49349777781898        0.62316922796235
C           -0.50361693188272       -0.34626010209727        0.40496229346924
O           -0.49855935598422       -1.56012824710279        0.44321857818699
N            0.63353790055480        0.38996480603890        0.11948661459946
C            1.86600141837555       -0.18086254983319       -0.13064064205352
N            2.95022618152220        0.41171866759060       -0.35638252791115
H           -2.01774895127732        0.99118061667649       -1.48590439722023
H           -3.50210283362152        1.08541106445030       -0.52045849957401
H           -2.84878915359767       -0.48824994490064       -0.96802940664641
H           -2.33562367492293        0.02588758541953        1.42378346739963
H           -1.47761416148667        1.51251285434218        0.92861393947660
H            0.55388446187701        1.40013645398080        0.11100967688443
H            1.84052262817284       -1.26355779052282       -0.09998994771000
H            2.88669349627460        1.42440564261008       -0.35648932814072
15
 energy: -22.556674961377 gnorm: 0.005928843985 xtb: 6.7.1 (edcfbbe)
C           -2.61146429789676        0.50556465061362       -0.65681321094969
C           -1.73557334935347        0.51354214896972        0.59935862587674
C           -0.50223299157533       -0.33349618391134        0.36731479229217
O           -0.51285184017846       -1.54298450435303        0.36578819282920
N            0.64547890503196        0.39046499098255        0.12296920921841
C            1.87751220968045       -0.18563404179640       -0.12198156840034
N            2.96583383684319        0.40331741740832       -0.32090524430690
H           -2.09029613000713        0.96299647292638       -1.49485019262479
H           -3.53069079445068        1.05919165596788       -0.47674461207018
H           -2.86817251601595       -0.51532658270476       -0.92435741051081
H           -2.29226257353294        0.07180556748527        1.42821335441120
H           -1.46555781186839        1.53732488699405        0.86409616476700
H            0.58384087188524        1.40098797616980        0.13653306178155
H            1.84788628134888       -1.26819158543155       -0.11952791136699
H            2.91053515568944        1.41888501967946       -0.30549533504671
15
 energy: -22.556754883902 gnorm: 0.006863126646 xtb: 6.7.1 (edcfbbe)
C           -2.59084135672166        0.51826260862525       -0.66403467365259
C           -1.74109475340139        0.50062758715662        0.61090410007119
C           -0.50433822471012       -0.34257507326794        0.38656018786399
O           -0.50537335235654       -1.55283081848544        0.40947982730716
N            0.63540483718353        0.38674457023499        0.11956906794703
C            1.87021289844531       -0.18351671456822       -0.12265588189463
N            2.95306321636106        0.40939451547094       -0.33919381609877
H           -2.05093841319677        0.98719735556711       -1.48306604745509
H           -3.51098679505305        1.07236828343387       -0.49397805792929
H           -2.84693031445731       -0.49578998911981       -0.95443588675479
H           -2.31564993042995        0.04516849875276        1.42010204729148
H           -1.47405144780149        1.51902802237339        0.89960846125623
H            0.56472616441196        1.39679156360453        0.11373085308197
H            1.84814478858270       -1.26604194117227       -0.09878295751882
H            2.89063763874380        1.42361942039419       -0.34020930761523
15
 energy: -22.556635497873 gnorm: 0.025060374210 xtb: 6.7.1 (edcfbbe)
C           -2.50389629602058        0.57039982721646       -0.69390986554895
C           -1.76551761252785        0.44731756338932        0.65863651321651
C           -0.51298751048745       -0.37875862018982        0.46814123614930
O           -0.47435601665213       -1.59125806971595        0.59055726874146
N            0.59411602442551        0.37174991145630        0.10960316820354
C            1.83951221557892       -0.17548206649915       -0.12575587533540
N            2.89867793723202        0.43432376641108       -0.41786932968341
H           -1.88144740594183        1.08217788689218       -1.43451604700931
H           -3.42600563541647        1.13146575985761       -0.56798985371236
H           -2.76120130129708       -0.41602648120693       -1.07723253640894
H           -2.41492436589648       -0.06648736539409        1.38439093616203
H           -1.51320758261943        1.44350591281492        1.04808494473612
H            0.48627579205797        1.37978108407692        0.02481045389495
H            1.84963595877512       -1.25793978936417       -0.01627660447585
H            2.80731075438985        1.44367856925525       -0.48707649302991
15
 energy: -22.556982475255 gnorm: 0.011224853141 xtb: 6.7.1 (edcfbbe)
C           -2.53356816873274        0.55240155138241       -0.67958681995482
C           -1.76082135761213        0.46802493629578        0.63838411685481
C           -0.51204414032344       -0.36191999026169        0.43530734760001
O           -0.48792754406948       -1.57238537988886        0.52301741006068
N            0.60642798885194        0.37631382506025        0.11834024670697
C            1.84956165649490       -0.17897201167287       -0.12133489753308
N            2.91198789316264        0.42484072878846       -0.39444684648468
H           -1.93827406352667        1.04111061325423       -1.44602979210746
H           -3.45227425294969        1.11205544581106       -0.53850664314280
H           -2.78717984762841       -0.44422670002713       -1.02798086722805
H           -2.38240545534790       -0.02729756675375        1.38739852865618
H           -1.50967350717721        1.47008960333637        0.99324205953978
H            0.52161338297796        1.38422721821189        0.05768213470096
H            1.85571678761279       -1.26002428642098       -0.04837296047511
H            2.84084558386752        1.43420990188477       -0.43351510129363
15
 energy: -22.557080886447 gnorm: 0.002866011700 xtb: 6.7.1 (edcfbbe)
C           -2.52964625866843        0.55454219897985       -0.68306073435450
C           -1.76278079332408        0.46633228931567        0.63979961412050
C           -0.51161362462103       -0.36314273316279        0.44626252631752
O           -0.48753911805382       -1.57075876426550        0.53005472806204
N            0.60539874335927        0.37348883849699        0.12275527252889
C            1.84932861326831       -0.18058901690944       -0.12017597606120
N            2.90968341803919        0.42538133567342       -0.39658163134152
H           -1.93242848224808        1.04725167740967       -1.44742585423360
H           -3.44938658453593        1.11605414367159       -0.54301494534984
H           -2.78206415928437       -0.44345473986739       -1.03340845358113
H           -2.38557007695896       -0.03160960978268        1.38480321212523
H           -1.51307896866935        1.46648880503519        0.99848110855469
H            0.52053238245972        1.38168430340690        0.06186015856030
H            1.85739472960901       -1.26229831804523       -0.05087471444564
H            2.83375513522864        1.43907747904369       -0.44587639500195
15
 energy: -22.557105257230 gnorm: 0.001227345516 xtb: 6.7.1 (edcfbbe)
C           -2.52541012649503        0.55681014383172       -0.68446713857196
C           -1.76421874265103        0.46488261953480        0.64195343891939
C           -0.51293251790844       -0.36579759032884        0.44929400600970
O           -0.48717593134108       -1.57186964515112        0.53889670460136
N            0.60335810569295        0.37056186171295        0.12250384975956
C            1.84857463070101       -0.18137102484459       -0.12093231725914
N            2.90671161700553        0.42702875610861       -0.40017382109789
H           -1.92529643011873        1.05253618115844       -1.44534180285180
H           -3.44555155093852        1.11941296899660       -0.54603209906496
H           -2.77692758684104       -0.44064585822203       -1.03859053520842
H           -2.38947811197348       -0.03533311170882        1.38282640507696
H           -1.51520797789845        1.46367379713358        1.00393940182759
H            0.51808582166125        1.37878854839549        0.05999825340724
H            1.86058679370672       -1.26295047412223       -0.04781336240190
H            2.82686696299840        1.44272071650537       -0.45246306724594
15
 energy: -22.557141904631 gnorm: 0.003885116016 xtb: 6.7.1 (edcfbbe)
C           -2.51568617330053        0.56324015808757       -0.68733912298502
C           -1.76713731538216        0.46023650183691        0.64602758478120
C           -0.51493001971063       -0.37210212493933        0.45844083514480
O           -0.48518839848359       -1.57632936427393        0.56198151053315
N            0.59862688956078        0.36444792569530        0.12127704795558
C            1.84664569896981       -0.18203624490798       -0.12216747048005
N            2.89942520650470        0.43181122242829       -0.40961420084634
H           -1.90815711407851        1.06465259532510       -1.43911868156713
H           -3.43650703650505        1.12702565671627       -0.55339873612096
H           -2.76573198289542       -0.43124794503764       -1.05141084231748
H           -2.40003125486582       -0.04498124125256        1.37647699979557
H           -1.51943197168561        1.45558933881676        1.01716338099717
H            0.51153677806284        1.37231822983803        0.05256495718831
H            1.86763805333703       -1.26304715028160       -0.04028325410957
H            2.81091359607221        1.44887033094876       -0.46700209206947
15
 energy: -22.557180147369 gnorm: 0.003802136770 xtb: 6.7.1 (edcfbbe)
C           -2.50678655021394        0.56956244705937       -0.68978941468298