15
 energy: -22.557492316669 gnorm: 0.000073388641 xtb: 6.7.1 (edcfbbe)
C           -2.39757244967099        0.64478466014407       -0.71185422623960
C           -1.80604991783714        0.38046280041998        0.67567093328475
C           -0.52055637682269       -0.41214196291674        0.56092375543567
O           -0.42564322231921       -1.59191665565316        0.81151424099653
N            0.54597935800574        0.33552946543144        0.11546938348464
C            1.81251037000146       -0.17232795057521       -0.10869706049155
N            2.81817956761244        0.45370101888887       -0.51485642947028
H           -1.72034012030857        1.23424977569795       -1.32657381776008
H           -3.33565152361262        1.18602329823210       -0.61653541636972
H           -2.59243360629887       -0.29629150829616       -1.22144247894567
H           -2.50987070480350       -0.20518632842492        1.26824856873013
H           -1.61378119097313        1.32491544481759        1.18923348069260
H            0.40090329923331        1.32229543594431       -0.06635495357133
H            1.89622301204974       -1.23193433483533        0.10384510728570
H            2.67008846134390        1.44628473012515       -0.69499317116221
