      -----------------------------------------------------------      
     |                   =====================                   |     
     |                           x T B                           |     
     |                   =====================                   |     
     |                         S. Grimme                         |     
     |          Mulliken Center for Theoretical Chemistry        |     
     |                    University of Bonn                     |     
      -----------------------------------------------------------      

   * xtb version 6.7.0 (08769fc) compiled by 'albert@albert-system' on 2024-03-04

   xtb is free software: you can redistribute it and/or modify it under
   the terms of the GNU Lesser General Public License as published by
   the Free Software Foundation, either version 3 of the License, or
   (at your option) any later version.
   
   xtb is distributed in the hope that it will be useful,
   but WITHOUT ANY WARRANTY; without even the implied warranty of
   MERCHANTABILITY or FITNESS FOR A PARTICULAR PURPOSE.  See the
   GNU Lesser General Public License for more details.
   
   Cite this work as:
   * C. Bannwarth, E. Caldeweyher, S. Ehlert, A. Hansen, P. Pracht,
     J. Seibert, S. Spicher, S. Grimme, WIREs Comput. Mol. Sci., 2020, 11,
     e01493. DOI: 10.1002/wcms.1493
   
   for GFN2-xTB:
   * C. Bannwarth, S. Ehlert and S. Grimme., J. Chem. Theory Comput., 2019,
     15, 1652-1671. DOI: 10.1021/acs.jctc.8b01176
   for GFN1-xTB:
   * S. Grimme, C. Bannwarth, P. Shushkov, J. Chem. Theory Comput., 2017,
     13, 1989-2009. DOI: 10.1021/acs.jctc.7b00118
   for GFN0-xTB:
   * P. Pracht, E. Caldeweyher, S. Ehlert, S. Grimme, ChemRxiv, 2019, preprint.
     DOI: 10.26434/chemrxiv.8326202.v1
   for GFN-FF:
   * S. Spicher and S. Grimme, Angew. Chem. Int. Ed., 2020, 59, 15665-15673.
     DOI: 10.1002/anie.202004239
   
   for ALPB and GBSA implicit solvation:
   * S. Ehlert, M. Stahn, S. Spicher, S. Grimme, J. Chem. Theory Comput.,
     2021, 17, 4250-4261. DOI: 10.1021/acs.jctc.1c00471
   
   for ddCOSMO and CPCM-X implicit solvation:
   * M. Stahn, S. Ehlert, S. Grimme, J. Phys. Chem. A,
     2023, XX, XXXX-XXXX. DOI: 10.1021/acs.jpca.3c04382
   
   for DFT-D4:
   * E. Caldeweyher, C. Bannwarth and S. Grimme, J. Chem. Phys., 2017,
     147, 034112. DOI: 10.1063/1.4993215
   * E. Caldeweyher, S. Ehlert, A. Hansen, H. Neugebauer, S. Spicher,
     C. Bannwarth and S. Grimme, J. Chem. Phys., 2019, 150, 154122.
     DOI: 10.1063/1.5090222
   * E. Caldeweyher, J.-M. Mewes, S. Ehlert and S. Grimme, Phys. Chem. Chem. Phys.
     2020, 22, 8499-8512. DOI: 10.1039/D0CP00502A
   
   for sTDA-xTB:
   * S. Grimme and C. Bannwarth, J. Chem. Phys., 2016, 145, 054103.
     DOI: 10.1063/1.4959605
   
   in the mass-spec context:
   * V. Asgeirsson, C. Bauer and S. Grimme, Chem. Sci., 2017, 8, 4879.
     DOI: 10.1039/c7sc00601b
   * J. Koopman and S. Grimme, ACS Omega 2019, 4, 12, 15120-15133.
     DOI: 10.1021/acsomega.9b02011
   
   for metadynamics refer to:
   * S. Grimme, J. Chem. Theory Comput., 2019, 155, 2847-2862
     DOI: 10.1021/acs.jctc.9b00143
   
   for SPH calculations refer to:
   * S. Spicher and S. Grimme, J. Chem. Theory Comput., 2021, 17, 1701-1714
     DOI: 10.1021/acs.jctc.0c01306
   
   for ONIOM refer to:
   * C. Plett, A. Katbashev, S. Ehlert, S. Grimme, M. Bursch,
     Phys. Chem. Chem. Phys., 2023, 25, 17860-17868. DOI: 10.1039/D3CP02178E
   
   for DIPRO refer to:
   * J. Kohn, N. Gildemeister, S. Grimme, D. Fazzi, A. Hansen,
     J. Chem. Phys., 2023, just accepted.
   
   for PTB refer to:
   * S. Grimme, M. Mueller, A. Hansen, J. Chem. Phys., 2023, 158, 124111.
     DOI: 10.1063/5.0137838
   
   with help from (in alphabetical order)
   P. Atkinson, C. Bannwarth, F. Bohle, G. Brandenburg, E. Caldeweyher
   M. Checinski, S. Dohm, S. Ehlert, S. Ehrlich, I. Gerasimov, C. Hölzer
   A. Katbashev, J. Kohn, J. Koopman, C. Lavigne, S. Lehtola, F. März, M. Müller,
   F. Musil, H. Neugebauer, J. Pisarek, C. Plett, P. Pracht, F. Pultar,
   J. Seibert, P. Shushkov, S. Spicher, M. Stahn, M. Steiner, T. Strunk,
   J. Stückrath, T. Rose, and J. Unsleber
   
 * started run on 2024/08/07 at 19:59:53.034     
   ID    Z sym.   atoms
    1    6 C      1, 2, 4, 6, 7
    2    8 O      3, 5
    3    1 H      8-13

           -------------------------------------------------
          |                Calculation Setup                |
           -------------------------------------------------

          program call               : /home/mvotokps/xtb-dist/bin/xtb crest_best.xyz --gfn 2 --alpb toluene --opt vtight -c 0 --iterations 4000
          coordinate file            : crest_best.xyz
          omp threads                :                     8


           -------------------------------------------------
          |                 G F N 2 - x T B                 |
           -------------------------------------------------

        Reference                      10.1021/acs.jctc.8b01176
      * Hamiltonian:
        H0-scaling (s, p, d)           1.850000    2.230000    2.230000
        zeta-weighting                 0.500000
      * Dispersion:
        s8                             2.700000
        a1                             0.520000
        a2                             5.000000
        s9                             5.000000
      * Repulsion:
        kExp                           1.500000    1.000000
        rExp                           1.000000
      * Coulomb:
        alpha                          2.000000
        third order                    shell-resolved
        anisotropic                    true
        a3                             3.000000
        a5                             4.000000
        cn-shift                       1.200000
        cn-exp                         4.000000
        max-rad                        5.000000

      * Solvation model:               ALPB
        Solvent                        toluene
        Parameter file                 internal GFN2-xTB/ALPB
        Dielectric constant                7.0000E+00
        Reference state                gsolv [1 M gas/solution]
        Free energy shift                  2.2081E-03 Eh       1.3856E+00 kcal/mol
        Temperature                        2.9815E+02 K
        Density                            8.6700E-01 kg/L
        Solvent mass                       7.8110E+01 g/mol
        Interaction kernel             P16
        Born radius scaling (c1)           1.7172E+00
        Born radii integrator          GBOBC
        Born offset                        0.0000E+00 a0       0.0000E+00 AA
        H-bond correction              false
        Ion screening                  false
        Surface tension                    1.0000E-05 Eh       1.5569E+01 dyn/cm
        Grid points                               230 per atom

          ...................................................
          :                      SETUP                      :
          :.................................................:
          :  # basis functions                  34          :
          :  # atomic orbitals                  34          :
          :  # shells                           20          :
          :  # electrons                        38          :
          :  max. iterations                  4000          :
          :  Hamiltonian                  GFN2-xTB          :
          :  restarted?                      false          :
          :  GBSA solvation                   true          :
          :  PC potential                    false          :
          :  electronic temp.          300.0000000     K    :
          :  accuracy                    1.0000000          :
          :  -> integral cutoff          0.2500000E+02      :
          :  -> integral neglect         0.1000000E-07      :
          :  -> SCF convergence          0.1000000E-05 Eh   :
          :  -> wf. convergence          0.1000000E-03 e    :
          :  Broyden damping             0.4000000          :
          :  net charge                          0          :
          :  unpaired electrons                  0          :
          ...................................................

 iter      E             dE          RMSdq      gap      omega  full diag
   1    -22.0726875 -0.220727E+02  0.602E+00    4.32       0.0  T
   2    -22.1064082 -0.337207E-01  0.333E+00    3.46       1.0  T
   3    -22.0991968  0.721140E-02  0.168E+00    3.95       1.0  T
   4    -22.1099728 -0.107761E-01  0.586E-01    3.61       1.0  T
   5    -22.1138337 -0.386086E-02  0.144E-01    3.61       1.0  T
   6    -22.1139562 -0.122464E-03  0.597E-02    3.63       1.0  T
   7    -22.1139672 -0.110287E-04  0.231E-02    3.63       1.2  T
   8    -22.1139679 -0.687050E-06  0.402E-03    3.63       6.9  T
   9    -22.1139679 -0.360549E-07  0.189E-03    3.63      14.7  T
  10    -22.1139679 -0.103240E-07  0.578E-04    3.63      48.0  T
  11    -22.1139679 -0.193656E-08  0.146E-04    3.63     189.4  T

   *** convergence criteria satisfied after 11 iterations ***

         #    Occupation            Energy/Eh            Energy/eV
      -------------------------------------------------------------
         1        2.0000           -0.7385413             -20.0967
       ...           ...                  ...                  ...
        13        2.0000           -0.4992361             -13.5849
        14        2.0000           -0.4918497             -13.3839
        15        2.0000           -0.4822561             -13.1229
        16        2.0000           -0.4545205             -12.3681
        17        2.0000           -0.4327405             -11.7755
        18        2.0000           -0.4289659             -11.6728
        19        2.0000           -0.4066796             -11.0663 (HOMO)
        20                         -0.2733825              -7.4391 (LUMO)
        21                         -0.1856919              -5.0529
        22                         -0.1754783              -4.7750
        23                          0.0298721               0.8129
        24                          0.0721349               1.9629
       ...                                ...                  ...
        34                          1.3431428              36.5488
      -------------------------------------------------------------
                  HL-Gap            0.1332970 Eh            3.6272 eV
             Fermi-level           -0.3400311 Eh           -9.2527 eV

 SCC (total)                   0 d,  0 h,  0 min,  0.114 sec
 SCC setup                      ...        0 min,  0.000 sec (  0.253%)
 Dispersion                     ...        0 min,  0.000 sec (  0.089%)
 classical contributions        ...        0 min,  0.000 sec (  0.012%)
 integral evaluation            ...        0 min,  0.001 sec (  0.449%)
 iterations                     ...        0 min,  0.109 sec ( 95.589%)
 molecular gradient             ...        0 min,  0.004 sec (  3.252%)
 printout                       ...        0 min,  0.000 sec (  0.305%)

         :::::::::::::::::::::::::::::::::::::::::::::::::::::
         ::                     SUMMARY                     ::
         :::::::::::::::::::::::::::::::::::::::::::::::::::::
         :: total energy             -21.804717408626 Eh    ::
         :: total w/o Gsasa/hb       -21.796437336674 Eh    ::
         :: gradient norm              0.068045945127 Eh/a0 ::
         :: HOMO-LUMO gap              3.627197175476 eV    ::
         ::.................................................::
         :: SCC energy               -22.113950633233 Eh    ::
         :: -> isotropic ES            0.053221148768 Eh    ::
         :: -> anisotropic ES          0.000402704190 Eh    ::
         :: -> anisotropic XC          0.009631567297 Eh    ::
         :: -> dispersion             -0.007625442491 Eh    ::
         :: -> Gsolv                  -0.010805808820 Eh    ::
         ::    -> Gelec               -0.002525736867 Eh    ::
         ::    -> Gsasa               -0.010488215091 Eh    ::
         ::    -> Ghb                  0.000000000000 Eh    ::
         ::    -> Gshift               0.002208143139 Eh    ::
         :: repulsion energy           0.309233224606 Eh    ::
         :: add. restraining           0.000000000000 Eh    ::
         :: total charge              -0.000000000000 e     ::
         :::::::::::::::::::::::::::::::::::::::::::::::::::::

      ----------------------------------------------------------- 
     |                   =====================                   |
     |                        A N C O P T                        |
     |                   =====================                   |
     |               Approximate Normal Coordinate               |
     |                Rational Function Optimizer                |
      ----------------------------------------------------------- 
      ----------------------------------------------------------- 
     |                   =====================                   |
     |                        A N C O P T                        |
     |                   =====================                   |
     |               Approximate Normal Coordinate               |
     |                Rational Function Optimizer                |
      ----------------------------------------------------------- 

          ...................................................
          :                      SETUP                      :
          :.................................................:
          :   optimization level         verytight          :
          :   max. optcycles                   260          :
          :   ANC micro-cycles                  20          :
          :   degrees of freedom                33          :
          :.................................................:
          :   RF solver                   davidson          :
          :   write xtbopt.log                true          :
          :   linear?                        false          :
          :   energy convergence         0.1000000E-06 Eh   :
          :   grad. convergence          0.2000000E-03 Eh/α :
          :   maxmium RF displ.          1.0000000          :
          :   Hlow (freq-cutoff)         0.1000000E-01      :
          :   Hmax (freq-cutoff)         5.0000000          :
          :   S6 in model hess.         20.0000000          :
          ...................................................

generating ANC from model Hessian ...
Using Lindh-Hessian (1995)
 Shifting diagonal of input Hessian by   9.825661079677262E-003
 Lowest  eigenvalues of input Hessian
    0.000000    0.000000    0.000000    0.000000    0.000000    0.000000
    0.010000    0.012926    0.014997    0.020036    0.023676    0.024501
    0.039260    0.054228    0.070228    0.072214    0.083675    0.101351
 Highest eigenvalues
    1.159901    1.214646    1.402692    1.505948    2.187638    2.510091
 

........................................................................
.............................. CYCLE    1 ..............................
........................................................................

 iter      E             dE          RMSdq      gap      omega  full diag
   1    -22.1139679 -0.221140E+02  0.590E-05    3.63       0.0  T
   2    -22.1139679 -0.137987E-10  0.318E-05    3.63     873.1  T
   3    -22.1139679 -0.343547E-11  0.190E-05    3.63    1462.4  T
     SCC iter.                  ...        0 min,  0.122 sec
     gradient                   ...        0 min,  0.001 sec
 * total energy  :   -21.8047174 Eh     change       -0.8081003E-10 Eh
   gradient norm :     0.0680458 Eh/α   predicted     0.0000000E+00 (-100.00%)
   displ. norm   :     0.1756261 α      lambda       -0.5322429E-02
   maximum displ.:     0.0717499 α      in ANC's #9, #2, #8, ...

........................................................................
.............................. CYCLE    2 ..............................
........................................................................

 iter      E             dE          RMSdq      gap      omega  full diag
   1    -22.1217186 -0.221217E+02  0.254E-01    3.55       0.0  T
   2    -22.1217364 -0.178235E-04  0.157E-01    3.58       1.0  T
   3    -22.1216229  0.113530E-03  0.106E-01    3.56       1.0  T
   4    -22.1217500 -0.127116E-03  0.252E-02    3.57       1.1  T
   5    -22.1217565 -0.653714E-05  0.504E-03    3.58       5.5  T
   6    -22.1217566 -0.271624E-07  0.258E-03    3.58      10.8  T
   7    -22.1217566 -0.119549E-07  0.925E-04    3.58      30.0  T
   8    -22.1217566 -0.993570E-09  0.228E-04    3.58     121.8  T
     SCC iter.                  ...        0 min,  0.118 sec
     gradient                   ...        0 min,  0.001 sec
 * total energy  :   -21.8079252 Eh     change       -0.3207829E-02 Eh
   gradient norm :     0.0197574 Eh/α   predicted    -0.2743299E-02 ( -14.48%)
   displ. norm   :     0.2232860 α      lambda       -0.1321267E-02
   maximum displ.:     0.1626608 α      in ANC's #1, #3, #9, ...

........................................................................
.............................. CYCLE    3 ..............................
........................................................................

 iter      E             dE          RMSdq      gap      omega  full diag
   1    -22.1202946 -0.221203E+02  0.246E-01    3.57       0.0  T
   2    -22.1202980 -0.339149E-05  0.150E-01    3.58       1.0  T
   3    -22.1202006  0.973512E-04  0.891E-02    3.57       1.0  T
   4    -22.1203055 -0.104885E-03  0.129E-02    3.58       2.2  T
   5    -22.1203073 -0.177490E-05  0.307E-03    3.58       9.0  T
   6    -22.1203073 -0.745434E-08  0.124E-03    3.58      22.4  T
   7    -22.1203073 -0.341656E-08  0.374E-04    3.58      74.1  T
   8    -22.1203073 -0.273047E-09  0.106E-04    3.58     262.7  T
     SCC iter.                  ...        0 min,  0.115 sec
     gradient                   ...        0 min,  0.003 sec
 * total energy  :   -21.8084770 Eh     change       -0.5517748E-03 Eh
   gradient norm :     0.0105106 Eh/α   predicted    -0.6935705E-03 (  25.70%)
   displ. norm   :     0.2966116 α      lambda       -0.1280434E-02
   maximum displ.:     0.2569803 α      in ANC's #2, #3, #6, ...

........................................................................
.............................. CYCLE    4 ..............................
........................................................................

 iter      E             dE          RMSdq      gap      omega  full diag
   1    -22.1196604 -0.221197E+02  0.425E-01    3.59       0.0  T
   2    -22.1196648 -0.439952E-05  0.253E-01    3.60       1.0  T
   3    -22.1196624  0.241279E-05  0.195E-02    3.59       1.4  T
   4    -22.1196663 -0.390786E-05  0.631E-03    3.60       4.4  T
   5    -22.1196663 -0.540926E-07  0.476E-03    3.60       5.8  T
   6    -22.1196665 -0.192714E-06  0.123E-03    3.60      22.6  T
   7    -22.1196665 -0.355916E-08  0.305E-04    3.60      91.1  T
   8    -22.1196665 -0.176566E-09  0.100E-04    3.60     276.2  T
     SCC iter.                  ...        0 min,  0.113 sec
     gradient                   ...        0 min,  0.003 sec
 * total energy  :   -21.8088285 Eh     change       -0.3514913E-03 Eh
   gradient norm :     0.0175146 Eh/α   predicted    -0.6965498E-03 (  98.17%)
   displ. norm   :     0.1081284 α      lambda       -0.6036853E-03
   maximum displ.:     0.0762052 α      in ANC's #1, #3, #2, ...

........................................................................
.............................. CYCLE    5 ..............................
........................................................................

 iter      E             dE          RMSdq      gap      omega  full diag
   1    -22.1220423 -0.221220E+02  0.959E-02    3.61       0.0  T
   2    -22.1220435 -0.124000E-05  0.582E-02    3.61       1.0  T
   3    -22.1220360  0.753381E-05  0.250E-02    3.61       1.1  T
   4    -22.1220439 -0.792295E-05  0.674E-03    3.61       4.1  T
   5    -22.1220444 -0.507622E-06  0.142E-03    3.61      19.5  T
   6    -22.1220444 -0.317307E-09  0.714E-04    3.61      38.8  T
   7    -22.1220444 -0.165961E-08  0.175E-04    3.61     158.6  T
     SCC iter.                  ...        0 min,  0.116 sec
     gradient                   ...        0 min,  0.002 sec
 * total energy  :   -21.8092967 Eh     change       -0.4682096E-03 Eh
   gradient norm :     0.0089182 Eh/α   predicted    -0.3053719E-03 ( -34.78%)
   displ. norm   :     0.3676157 α      lambda       -0.8182325E-03
   maximum displ.:     0.2284377 α      in ANC's #3, #2, #1, ...

........................................................................
.............................. CYCLE    6 ..............................
........................................................................

 iter      E             dE          RMSdq      gap      omega  full diag
   1    -22.1215500 -0.221215E+02  0.282E-01    3.63       0.0  T
   2    -22.1215541 -0.407164E-05  0.167E-01    3.63       1.0  T
   3    -22.1215514  0.262297E-05  0.176E-02    3.64       1.6  T
   4    -22.1215550 -0.359270E-05  0.555E-03    3.63       5.0  T
   5    -22.1215552 -0.176163E-06  0.300E-03    3.63       9.3  T
   6    -22.1215552 -0.272290E-07  0.157E-03    3.63      17.6  T
   7    -22.1215553 -0.184342E-07  0.307E-04    3.63      90.3  T
   8    -22.1215553 -0.110017E-09  0.894E-05    3.63     310.3  T
     SCC iter.                  ...        0 min,  0.174 sec
     gradient                   ...        0 min,  0.001 sec
 * total energy  :   -21.8098625 Eh     change       -0.5658184E-03 Eh
   gradient norm :     0.0084486 Eh/α   predicted    -0.4644018E-03 ( -17.92%)
   displ. norm   :     0.3854733 α      lambda       -0.5130583E-03
   maximum displ.:     0.2527244 α      in ANC's #3, #2, #1, ...

........................................................................
.............................. CYCLE    7 ..............................
........................................................................

 iter      E             dE          RMSdq      gap      omega  full diag
   1    -22.1202544 -0.221203E+02  0.295E-01    3.65       0.0  T
   2    -22.1202570 -0.259850E-05  0.174E-01    3.65       1.0  T
   3    -22.1202549  0.217342E-05  0.162E-02    3.65       1.7  T
   4    -22.1202572 -0.239292E-05  0.742E-03    3.65       3.7  T
   5    -22.1202578 -0.586549E-06  0.270E-03    3.65      10.3  T
   6    -22.1202578 -0.144347E-07  0.980E-04    3.65      28.3  T
   7    -22.1202579 -0.524657E-08  0.303E-04    3.65      91.6  T
     SCC iter.                  ...        0 min,  0.159 sec
     gradient                   ...        0 min,  0.097 sec
 * total energy  :   -21.8102422 Eh     change       -0.3797092E-03 Eh
   gradient norm :     0.0106833 Eh/α   predicted    -0.2946481E-03 ( -22.40%)
   displ. norm   :     0.3432515 α      lambda       -0.4617758E-03
   maximum displ.:     0.2258229 α      in ANC's #3, #2, #1, ...

........................................................................
.............................. CYCLE    8 ..............................
........................................................................

 iter      E             dE          RMSdq      gap      omega  full diag
   1    -22.1203956 -0.221204E+02  0.281E-01    3.66       0.0  T
   2    -22.1203977 -0.207157E-05  0.166E-01    3.66       1.0  T
   3    -22.1203980 -0.305206E-06  0.694E-03    3.67       4.0  T
   4    -22.1203981 -0.156707E-06  0.460E-03    3.66       6.0  T
   5    -22.1203983 -0.113972E-06  0.292E-03    3.66       9.5  T
   6    -22.1203983 -0.608463E-07  0.814E-04    3.66      34.1  T
   7    -22.1203983 -0.206031E-08  0.351E-04    3.66      78.9  T
     SCC iter.                  ...        0 min,  0.143 sec
     gradient                   ...        0 min,  0.001 sec
 * total energy  :   -21.8105583 Eh     change       -0.3160582E-03 Eh
   gradient norm :     0.0082763 Eh/α   predicted    -0.2580909E-03 ( -18.34%)
   displ. norm   :     0.1859121 α      lambda       -0.2788332E-03
   maximum displ.:     0.1334724 α      in ANC's #3, #2, #1, ...

........................................................................
.............................. CYCLE    9 ..............................
........................................................................

 iter      E             dE          RMSdq      gap      omega  full diag
   1    -22.1236900 -0.221237E+02  0.137E-01    3.68       0.0  T
   2    -22.1236911 -0.110516E-05  0.811E-02    3.68       1.0  T
   3    -22.1236904  0.719807E-06  0.102E-02    3.68       2.7  T
   4    -22.1236914 -0.937246E-06  0.465E-03    3.68       6.0  T
   5    -22.1236915 -0.177193E-06  0.170E-03    3.68      16.4  T
   6    -22.1236915 -0.121030E-07  0.583E-04    3.68      47.5  T
   7    -22.1236915 -0.301352E-09  0.150E-04    3.68     184.8  T
     SCC iter.                  ...        0 min,  0.142 sec
     gradient                   ...        0 min,  0.006 sec
 * total energy  :   -21.8107463 Eh     change       -0.1880480E-03 Eh
   gradient norm :     0.0050076 Eh/α   predicted    -0.1442366E-03 ( -23.30%)
   displ. norm   :     0.2503783 α      lambda       -0.2103122E-03
   maximum displ.:     0.1845898 α      in ANC's #3, #2, #4, ...

........................................................................
.............................. CYCLE   10 ..............................
........................................................................

 iter      E             dE          RMSdq      gap      omega  full diag
   1    -22.1221103 -0.221221E+02  0.222E-01    3.69       0.0  T
   2    -22.1221119 -0.158223E-05  0.131E-01    3.69       1.0  T
   3    -22.1221018  0.100394E-04  0.290E-02    3.68       1.0  T
   4    -22.1221128 -0.109508E-04  0.561E-03    3.68       4.9  T
   5    -22.1221130 -0.210870E-06  0.220E-03    3.68      12.6  T
   6    -22.1221130 -0.858631E-08  0.878E-04    3.68      31.6  T
   7    -22.1221130 -0.204760E-08  0.317E-04    3.68      87.6  T
     SCC iter.                  ...        0 min,  0.147 sec
     gradient                   ...        0 min,  0.002 sec
 * total energy  :   -21.8108872 Eh     change       -0.1408870E-03 Eh
   gradient norm :     0.0079273 Eh/α   predicted    -0.1117498E-03 ( -20.68%)
   displ. norm   :     0.2273983 α      lambda       -0.2242206E-03
   maximum displ.:     0.1846749 α      in ANC's #3, #6, #4, ...

........................................................................
.............................. CYCLE   11 ..............................
........................................................................

 iter      E             dE          RMSdq      gap      omega  full diag
   1    -22.1242343 -0.221242E+02  0.189E-01    3.71       0.0  T
   2    -22.1242372 -0.280981E-05  0.113E-01    3.71       1.0  T
   3    -22.1242365  0.619732E-06  0.122E-02    3.71       2.3  T
   4    -22.1242375 -0.965586E-06  0.716E-03    3.71       3.9  T
   5    -22.1242379 -0.425848E-06  0.323E-03    3.71       8.6  T
   6    -22.1242380 -0.578205E-07  0.105E-03    3.71      26.5  T
   7    -22.1242380 -0.243472E-08  0.433E-04    3.71      64.0  T
   8    -22.1242380 -0.829445E-09  0.119E-04    3.71     232.3  T
     SCC iter.                  ...        0 min,  0.104 sec
     gradient                   ...        0 min,  0.001 sec
 * total energy  :   -21.8110207 Eh     change       -0.1334391E-03 Eh
   gradient norm :     0.0086332 Eh/α   predicted    -0.1179077E-03 ( -11.64%)
   displ. norm   :     0.1294662 α      lambda       -0.1538561E-03
   maximum displ.:     0.0649857 α      in ANC's #3, #6, #4, ...

........................................................................
.............................. CYCLE   12 ..............................
........................................................................

 iter      E             dE          RMSdq      gap      omega  full diag
   1    -22.1250592 -0.221251E+02  0.128E-01    3.72       0.0  T
   2    -22.1250604 -0.116609E-05  0.761E-02    3.72       1.0  T
   3    -22.1250448  0.156511E-04  0.358E-02    3.72       1.0  T
   4    -22.1250616 -0.168135E-04  0.467E-03    3.72       5.9  T
   5    -22.1250617 -0.159680E-06  0.156E-03    3.72      17.8  T
   6    -22.1250617 -0.143586E-08  0.621E-04    3.72      44.7  T
   7    -22.1250617 -0.492086E-09  0.242E-04    3.72     114.5  T
     SCC iter.                  ...        0 min,  0.104 sec
     gradient                   ...        0 min,  0.001 sec
 * total energy  :   -21.8110946 Eh     change       -0.7389177E-04 Eh
   gradient norm :     0.0060552 Eh/α   predicted    -0.7821585E-04 (   5.85%)
   displ. norm   :     0.2383285 α      lambda       -0.1663140E-03
   maximum displ.:     0.2077444 α      in ANC's #3, #4, #6, ...

........................................................................
.............................. CYCLE   13 ..............................
........................................................................

 iter      E             dE          RMSdq      gap      omega  full diag
   1    -22.1213860 -0.221214E+02  0.211E-01    3.72       0.0  T
   2    -22.1213889 -0.292126E-05  0.124E-01    3.72       1.0  T
   3    -22.1213859  0.300312E-05  0.182E-02    3.72       1.5  T
   4    -22.1213891 -0.322288E-05  0.773E-03    3.72       3.6  T
   5    -22.1213897 -0.612525E-06  0.319E-03    3.72       8.7  T
   6    -22.1213898 -0.444864E-07  0.135E-03    3.72      20.5  T
   7    -22.1213898 -0.478042E-08  0.365E-04    3.72      75.9  T
   8    -22.1213898 -0.206910E-09  0.104E-04    3.72     267.2  T
     SCC iter.                  ...        0 min,  0.107 sec
     gradient                   ...        0 min,  0.002 sec
 * total energy  :   -21.8111561 Eh     change       -0.6151615E-04 Eh
   gradient norm :     0.0067959 Eh/α   predicted    -0.8788017E-04 (  42.86%)
   displ. norm   :     0.0920368 α      lambda       -0.1009750E-03
   maximum displ.:     0.0553077 α      in ANC's #2, #3, #1, ...

........................................................................
.............................. CYCLE   14 ..............................
........................................................................

 iter      E             dE          RMSdq      gap      omega  full diag
   1    -22.1243657 -0.221244E+02  0.114E-01    3.74       0.0  T
   2    -22.1243666 -0.905620E-06  0.676E-02    3.74       1.0  T
   3    -22.1243624  0.423573E-05  0.185E-02    3.74       1.5  T
   4    -22.1243668 -0.437238E-05  0.450E-03    3.74       6.2  T
   5    -22.1243670 -0.224788E-06  0.108E-03    3.74      25.7  T
   6    -22.1243670  0.226997E-09  0.454E-04    3.74      61.1  T
   7    -22.1243670 -0.118062E-08  0.115E-04    3.74     241.3  T
     SCC iter.                  ...        0 min,  0.102 sec
     gradient                   ...        0 min,  0.001 sec
 * total energy  :   -21.8112072 Eh     change       -0.5111487E-04 Eh
   gradient norm :     0.0039724 Eh/α   predicted    -0.5091700E-04 (  -0.39%)
   displ. norm   :     0.0849463 α      lambda       -0.5299280E-04
   maximum displ.:     0.0504436 α      in ANC's #3, #4, #6, ...

........................................................................
.............................. CYCLE   15 ..............................
........................................................................

 iter      E             dE          RMSdq      gap      omega  full diag
   1    -22.1241085 -0.221241E+02  0.890E-02    3.75       0.0  T
   2    -22.1241088 -0.283389E-06  0.528E-02    3.75       1.0  T
   3    -22.1241087  0.169563E-06  0.557E-03    3.75       5.0  T
   4    -22.1241089 -0.289506E-06  0.250E-03    3.75      11.1  T
   5    -22.1241090 -0.273691E-07  0.129E-03    3.75      21.4  T
   6    -22.1241090 -0.104354E-07  0.315E-04    3.75      88.1  T
   7    -22.1241090 -0.191324E-09  0.136E-04    3.75     203.4  T
     SCC iter.                  ...        0 min,  0.102 sec
     gradient                   ...        0 min,  0.001 sec
 * total energy  :   -21.8112415 Eh     change       -0.3434971E-04 Eh
   gradient norm :     0.0030556 Eh/α   predicted    -0.2668642E-04 ( -22.31%)
   displ. norm   :     0.1096243 α      lambda       -0.4338417E-04
   maximum displ.:     0.0808733 α      in ANC's #3, #4, #1, ...

........................................................................
.............................. CYCLE   16 ..............................
........................................................................

 iter      E             dE          RMSdq      gap      omega  full diag
   1    -22.1233918 -0.221234E+02  0.100E-01    3.75       0.0  T
   2    -22.1233921 -0.365407E-06  0.593E-02    3.75       1.0  T
   3    -22.1233917  0.498601E-06  0.740E-03    3.75       3.7  T
   4    -22.1233923 -0.602052E-06  0.293E-03    3.75       9.5  T
   5    -22.1233923 -0.585210E-07  0.124E-03    3.75      22.4  T
   6    -22.1233923 -0.477342E-08  0.420E-04    3.75      66.0  T
   7    -22.1233923 -0.574062E-09  0.161E-04    3.75     172.1  T
     SCC iter.                  ...        0 min,  0.101 sec
     gradient                   ...        0 min,  0.001 sec
 * total energy  :   -21.8112719 Eh     change       -0.3040314E-04 Eh
   gradient norm :     0.0036468 Eh/α   predicted    -0.2195191E-04 ( -27.80%)
   displ. norm   :     0.0928561 α      lambda       -0.3921377E-04
   maximum displ.:     0.0704506 α      in ANC's #3, #4, #21, ...

........................................................................
.............................. CYCLE   17 ..............................
........................................................................

 iter      E             dE          RMSdq      gap      omega  full diag
   1    -22.1233172 -0.221233E+02  0.642E-02    3.76       0.0  T
   2    -22.1233174 -0.180592E-06  0.383E-02    3.76       1.0  T
   3    -22.1233166  0.796267E-06  0.843E-03    3.76       3.3  T
   4    -22.1233175 -0.893543E-06  0.204E-03    3.76      13.6  T
   5    -22.1233175 -0.223337E-07  0.823E-04    3.76      33.7  T
   6    -22.1233175 -0.232002E-08  0.281E-04    3.76      98.8  T
     SCC iter.                  ...        0 min,  0.106 sec
     gradient                   ...        0 min,  0.001 sec
 * total energy  :   -21.8113001 Eh     change       -0.2810761E-04 Eh
   gradient norm :     0.0038778 Eh/α   predicted    -0.1977491E-04 ( -29.65%)
   displ. norm   :     0.0826353 α      lambda       -0.3613766E-04
   maximum displ.:     0.0567629 α      in ANC's #3, #4, #21, ...

........................................................................
.............................. CYCLE   18 ..............................
........................................................................

 iter      E             dE          RMSdq      gap      omega  full diag
   1    -22.1239231 -0.221239E+02  0.463E-02    3.77       0.0  T
   2    -22.1239232 -0.779402E-07  0.278E-02    3.77       1.0  T
   3    -22.1239209  0.228724E-05  0.137E-02    3.77       2.0  T
   4    -22.1239234 -0.247112E-05  0.143E-03    3.77      19.4  T
   5    -22.1239234 -0.580503E-08  0.502E-04    3.77      55.3  T
   6    -22.1239234 -0.604572E-09  0.195E-04    3.77     142.2  T
     SCC iter.                  ...        0 min,  0.110 sec
     gradient                   ...        0 min,  0.001 sec
 * total energy  :   -21.8113249 Eh     change       -0.2486521E-04 Eh
   gradient norm :     0.0029015 Eh/α   predicted    -0.1819339E-04 ( -26.83%)
   displ. norm   :     0.0875172 α      lambda       -0.2574008E-04
   maximum displ.:     0.0630842 α      in ANC's #3, #4, #21, ...

........................................................................
.............................. CYCLE   19 ..............................
........................................................................

 iter      E             dE          RMSdq      gap      omega  full diag
   1    -22.1240200 -0.221240E+02  0.528E-02    3.77       0.0  T
   2    -22.1240203 -0.272432E-06  0.317E-02    3.77       1.0  T
   3    -22.1240190  0.128166E-05  0.107E-02    3.77       2.6  T
   4    -22.1240204 -0.135559E-05  0.270E-03    3.77      10.3  T
   5    -22.1240205 -0.754070E-07  0.956E-04    3.77      29.0  T
   6    -22.1240205 -0.249745E-08  0.385E-04    3.77      72.0  T
     SCC iter.                  ...        0 min,  0.110 sec
     gradient                   ...        0 min,  0.001 sec
 * total energy  :   -21.8113415 Eh     change       -0.1654506E-04 Eh
   gradient norm :     0.0027048 Eh/α   predicted    -0.1297027E-04 ( -21.61%)
   displ. norm   :     0.0438520 α      lambda       -0.2018499E-04
   maximum displ.:     0.0258739 α      in ANC's #4, #3, #21, ...

........................................................................
.............................. CYCLE   20 ..............................
........................................................................

 iter      E             dE          RMSdq      gap      omega  full diag
   1    -22.1248307 -0.221248E+02  0.246E-02    3.77       0.0  T
   2    -22.1248307 -0.234190E-07  0.147E-02    3.77       1.9  T
   3    -22.1248296  0.113597E-05  0.996E-03    3.77       2.8  T
   4    -22.1248308 -0.124448E-05  0.105E-03    3.77      26.4  T
   5    -22.1248308 -0.625311E-08  0.470E-04    3.77      59.0  T
   6    -22.1248308 -0.400863E-09  0.144E-04    3.77     192.7  T
     SCC iter.                  ...        0 min,  0.103 sec
     gradient                   ...        0 min,  0.001 sec
 * total energy  :   -21.8113528 Eh     change       -0.1129353E-04 Eh
   gradient norm :     0.0022534 Eh/α   predicted    -0.1010952E-04 ( -10.48%)
   displ. norm   :     0.0908051 α      lambda       -0.1572204E-04
   maximum displ.:     0.0651356 α      in ANC's #3, #4, #21, ...
 * RMSD in coord.:     0.7451841 α      energy gain  -0.6635352E-02 Eh

generating ANC from model Hessian ...
Using Lindh-Hessian (1995)
 Shifting diagonal of input Hessian by   9.324937709991233E-003
 Lowest  eigenvalues of input Hessian
    0.000000    0.000000    0.000000    0.000000    0.000000    0.000000
    0.010000    0.012548    0.014353    0.018877    0.024206    0.028323
    0.039547    0.053216    0.065716    0.069400    0.083025    0.095918
 Highest eigenvalues
    1.158758    1.219364    1.351329    1.535593    2.148318    2.538295
 

........................................................................
.............................. CYCLE   21 ..............................
........................................................................

 iter      E             dE          RMSdq      gap      omega  full diag
   1    -22.1240961 -0.221241E+02  0.613E-02    3.77       0.0  T
   2    -22.1240964 -0.301870E-06  0.365E-02    3.77       1.0  T
   3    -22.1240946  0.176908E-05  0.123E-02    3.77       2.2  T
   4    -22.1240965 -0.186945E-05  0.275E-03    3.77      10.1  T
   5    -22.1240965 -0.765290E-07  0.960E-04    3.77      28.9  T
   6    -22.1240965 -0.197664E-08  0.452E-04    3.77      61.4  T
     SCC iter.                  ...        0 min,  0.103 sec
     gradient                   ...        0 min,  0.002 sec
 * total energy  :   -21.8113603 Eh     change       -0.7541529E-05 Eh
   gradient norm :     0.0023245 Eh/α   predicted     0.0000000E+00 (-100.00%)
   displ. norm   :     0.0373711 α      lambda       -0.2985537E-04
   maximum displ.:     0.0238637 α      in ANC's #1, #2, #3, ...

........................................................................
.............................. CYCLE   22 ..............................
........................................................................

 iter      E             dE          RMSdq      gap      omega  full diag
   1    -22.1242593 -0.221243E+02  0.547E-02    3.77       0.0  T
   2    -22.1242594 -0.812285E-07  0.327E-02    3.77       1.0  T
   3    -22.1242574  0.198208E-05  0.126E-02    3.77       2.2  T
   4    -22.1242595 -0.212568E-05  0.101E-03    3.77      27.6  T
   5    -22.1242595 -0.404997E-08  0.498E-04    3.77      55.7  T
   6    -22.1242595 -0.254694E-10  0.121E-04    3.77     228.9  T
     SCC iter.                  ...        0 min,  0.103 sec
     gradient                   ...        0 min,  0.001 sec
 * total energy  :   -21.8113659 Eh     change       -0.5599873E-05 Eh
   gradient norm :     0.0015446 Eh/α   predicted    -0.1494704E-04 ( 166.92%)
   displ. norm   :     0.0433747 α      lambda       -0.3146462E-04
   maximum displ.:     0.0267493 α      in ANC's #4, #1, #11, ...

........................................................................
.............................. CYCLE   23 ..............................
........................................................................

 iter      E             dE          RMSdq      gap      omega  full diag
   1    -22.1247132 -0.221247E+02  0.515E-02    3.77       0.0  T
   2    -22.1247135 -0.237708E-06  0.306E-02    3.77       1.0  T
   3    -22.1247133  0.153553E-06  0.423E-03    3.77       6.6  T
   4    -22.1247134 -0.132322E-06  0.254E-03    3.77      10.9  T
   5    -22.1247135 -0.745280E-07  0.653E-04    3.77      42.5  T
   6    -22.1247135 -0.392284E-09  0.292E-04    3.77      95.0  T
     SCC iter.                  ...        0 min,  0.105 sec
     gradient                   ...        0 min,  0.002 sec
 * total energy  :   -21.8113871 Eh     change       -0.2117781E-04 Eh
   gradient norm :     0.0018540 Eh/α   predicted    -0.1574509E-04 ( -25.65%)
   displ. norm   :     0.0411967 α      lambda       -0.1414522E-04
   maximum displ.:     0.0356466 α      in ANC's #4, #8, #6, ...

........................................................................
.............................. CYCLE   24 ..............................
........................................................................

 iter      E             dE          RMSdq      gap      omega  full diag
   1    -22.1245906 -0.221246E+02  0.274E-02    3.77       0.0  T
   2    -22.1245907 -0.516459E-07  0.164E-02    3.77       1.7  T
   3    -22.1245907 -0.791656E-08  0.158E-03    3.77      17.5  T
   4    -22.1245907 -0.749767E-08  0.107E-03    3.77      25.9  T
   5    -22.1245907 -0.751132E-08  0.428E-04    3.77      64.8  T
   6    -22.1245907 -0.105814E-08  0.140E-04    3.77     197.8  T
     SCC iter.                  ...        0 min,  0.102 sec
     gradient                   ...        0 min,  0.001 sec
 * total energy  :   -21.8114055 Eh     change       -0.1845412E-04 Eh
   gradient norm :     0.0013020 Eh/α   predicted    -0.7077624E-05 ( -61.65%)
   displ. norm   :     0.2455891 α      lambda       -0.6597542E-04
   maximum displ.:     0.2034872 α      in ANC's #4, #8, #2, ...

........................................................................
.............................. CYCLE   25 ..............................
........................................................................

 iter      E             dE          RMSdq      gap      omega  full diag
   1    -22.1227042 -0.221227E+02  0.156E-01    3.75       0.0  T
   2    -22.1227059 -0.173234E-05  0.932E-02    3.75       1.0  T
   3    -22.1227042  0.167422E-05  0.148E-02    3.75       1.9  T
   4    -22.1227065 -0.228655E-05  0.624E-03    3.75       4.4  T
   5    -22.1227068 -0.227279E-06  0.203E-03    3.75      13.6  T
   6    -22.1227068 -0.432603E-08  0.647E-04    3.75      42.9  T
   7    -22.1227068 -0.471271E-09  0.209E-04    3.75     132.7  T
     SCC iter.                  ...        0 min,  0.101 sec
     gradient                   ...        0 min,  0.001 sec
 * total energy  :   -21.8114420 Eh     change       -0.3644999E-04 Eh
   gradient norm :     0.0054545 Eh/α   predicted    -0.3387495E-04 (  -7.06%)
   displ. norm   :     0.0219915 α      lambda       -0.3093235E-04
   maximum displ.:     0.0130300 α      in ANC's #4, #2, #8, ...

........................................................................
.............................. CYCLE   26 ..............................
........................................................................

 iter      E             dE          RMSdq      gap      omega  full diag
   1    -22.1238220 -0.221238E+02  0.197E-02    3.76       0.0  T
   2    -22.1238221 -0.138177E-06  0.116E-02    3.75       2.4  T
   3    -22.1238215  0.622856E-06  0.793E-03    3.75       3.5  T
   4    -22.1238222 -0.696126E-06  0.155E-03    3.75      17.9  T
   5    -22.1238222 -0.200634E-07  0.469E-04    3.75      59.2  T
   6    -22.1238222 -0.721734E-10  0.208E-04    3.75     133.2  T
     SCC iter.                  ...        0 min,  0.102 sec
     gradient                   ...        0 min,  0.001 sec
 * total energy  :   -21.8114639 Eh     change       -0.2189952E-04 Eh
   gradient norm :     0.0029798 Eh/α   predicted    -0.1547209E-04 ( -29.35%)
   displ. norm   :     0.0506904 α      lambda       -0.2563861E-04
   maximum displ.:     0.0405997 α      in ANC's #4, #8, #1, ...

........................................................................
.............................. CYCLE   27 ..............................
........................................................................

 iter      E             dE          RMSdq      gap      omega  full diag
   1    -22.1246456 -0.221246E+02  0.390E-02    3.75       0.0  T
   2    -22.1246457 -0.141507E-06  0.229E-02    3.75       1.2  T
   3    -22.1246448  0.873965E-06  0.867E-03    3.75       3.2  T
   4    -22.1246458 -0.947904E-06  0.158E-03    3.75      17.5  T
   5    -22.1246458 -0.181144E-07  0.647E-04    3.75      42.9  T
   6    -22.1246458 -0.219309E-09  0.203E-04    3.75     136.7  T
     SCC iter.                  ...        0 min,  0.161 sec
     gradient                   ...        0 min,  0.009 sec
 * total energy  :   -21.8114825 Eh     change       -0.1857703E-04 Eh
   gradient norm :     0.0014506 Eh/α   predicted    -0.1285315E-04 ( -30.81%)
   displ. norm   :     0.1543388 α      lambda       -0.2310173E-04
   maximum displ.:     0.1249666 α      in ANC's #4, #8, #1, ...

........................................................................
.............................. CYCLE   28 ..............................
........................................................................

 iter      E             dE          RMSdq      gap      omega  full diag
   1    -22.1248155 -0.221248E+02  0.107E-01    3.74       0.0  T
   2    -22.1248160 -0.494989E-06  0.632E-02    3.74       1.0  T
   3    -22.1248160 -0.813633E-07  0.487E-03    3.74       5.7  T
   4    -22.1248161 -0.670752E-07  0.337E-03    3.74       8.2  T
   5    -22.1248162 -0.840378E-07  0.995E-04    3.74      27.9  T
   6    -22.1248162 -0.425761E-08  0.388E-04    3.74      71.5  T
     SCC iter.                  ...        0 min,  0.115 sec
     gradient                   ...        0 min,  0.001 sec
 * total energy  :   -21.8115054 Eh     change       -0.2296219E-04 Eh
   gradient norm :     0.0012628 Eh/α   predicted    -0.1167290E-04 ( -49.16%)
   displ. norm   :     0.1264278 α      lambda       -0.1122381E-04
   maximum displ.:     0.1000430 α      in ANC's #4, #2, #8, ...

........................................................................
.............................. CYCLE   29 ..............................
........................................................................

 iter      E             dE          RMSdq      gap      omega  full diag
   1    -22.1242469 -0.221242E+02  0.870E-02    3.73       0.0  T
   2    -22.1242472 -0.283349E-06  0.515E-02    3.73       1.0  T
   3    -22.1242448  0.239102E-05  0.141E-02    3.73       2.0  T
   4    -22.1242474 -0.265710E-05  0.234E-03    3.73      11.9  T
   5    -22.1242475 -0.931823E-08  0.866E-04    3.73      32.0  T
   6    -22.1242475 -0.182439E-08  0.327E-04    3.73      84.7  T
     SCC iter.                  ...        0 min,  0.100 sec
     gradient                   ...        0 min,  0.003 sec
 * total energy  :   -21.8115133 Eh     change       -0.7918438E-05 Eh
   gradient norm :     0.0016421 Eh/α   predicted    -0.5651176E-05 ( -28.63%)
   displ. norm   :     0.0231533 α      lambda       -0.7129708E-05
   maximum displ.:     0.0146619 α      in ANC's #2, #1, #11, ...

........................................................................
.............................. CYCLE   30 ..............................
........................................................................

 iter      E             dE          RMSdq      gap      omega  full diag
   1    -22.1248792 -0.221249E+02  0.424E-02    3.74       0.0  T
   2    -22.1248792 -0.693466E-07  0.251E-02    3.74       1.1  T
   3    -22.1248776  0.161020E-05  0.113E-02    3.74       2.4  T
   4    -22.1248793 -0.171603E-05  0.915E-04    3.74      30.3  T
   5    -22.1248794 -0.668543E-08  0.341E-04    3.74      81.4  T
   6    -22.1248794 -0.167688E-10  0.731E-05    3.74     379.3  T
     SCC iter.                  ...        0 min,  0.102 sec
     gradient                   ...        0 min,  0.001 sec
 * total energy  :   -21.8115184 Eh     change       -0.5072126E-05 Eh
   gradient norm :     0.0012838 Eh/α   predicted    -0.3563631E-05 ( -29.74%)
   displ. norm   :     0.0403935 α      lambda       -0.4414203E-05
   maximum displ.:     0.0294346 α      in ANC's #4, #2, #1, ...

........................................................................
.............................. CYCLE   31 ..............................
........................................................................

 iter      E             dE          RMSdq      gap      omega  full diag
   1    -22.1249222 -0.221249E+02  0.253E-02    3.74       0.0  T
   2    -22.1249222 -0.311514E-07  0.150E-02    3.74       1.9  T
   3    -22.1249222  0.219990E-07  0.163E-03    3.74      17.0  T
   4    -22.1249222 -0.307397E-07  0.362E-04    3.74      76.7  T
   5    -22.1249222 -0.135707E-09  0.213E-04    3.74     130.1  T
     SCC iter.                  ...        0 min,  0.110 sec
     gradient                   ...        0 min,  0.001 sec
 * total energy  :   -21.8115229 Eh     change       -0.4513287E-05 Eh
   gradient norm :     0.0009110 Eh/α   predicted    -0.2207683E-05 ( -51.08%)
   displ. norm   :     0.0453679 α      lambda       -0.2925872E-05
   maximum displ.:     0.0280977 α      in ANC's #4, #2, #3, ...

........................................................................
.............................. CYCLE   32 ..............................
........................................................................

 iter      E             dE          RMSdq      gap      omega  full diag
   1    -22.1247983 -0.221248E+02  0.353E-02    3.74       0.0  T
   2    -22.1247984 -0.260104E-07  0.209E-02    3.74       1.3  T
   3    -22.1247983  0.937796E-07  0.286E-03    3.74       9.7  T
   4    -22.1247984 -0.101623E-06  0.763E-04    3.74      36.3  T
   5    -22.1247984 -0.548592E-08  0.297E-04    3.74      93.3  T
     SCC iter.                  ...        0 min,  0.101 sec
     gradient                   ...        0 min,  0.001 sec
 * total energy  :   -21.8115258 Eh     change       -0.2861249E-05 Eh
   gradient norm :     0.0006688 Eh/α   predicted    -0.1463427E-05 ( -48.85%)
   displ. norm   :     0.0288476 α      lambda       -0.2142663E-05
   maximum displ.:     0.0223323 α      in ANC's #3, #2, #8, ...

........................................................................
.............................. CYCLE   33 ..............................
........................................................................

 iter      E             dE          RMSdq      gap      omega  full diag
   1    -22.1247957 -0.221248E+02  0.268E-02    3.74       0.0  T
   2    -22.1247958 -0.416041E-07  0.159E-02    3.74       1.7  T
   3    -22.1247958  0.681329E-09  0.155E-03    3.74      17.9  T
   4    -22.1247958 -0.162766E-07  0.726E-04    3.74      38.2  T
   5    -22.1247958  0.118022E-08  0.555E-04    3.74      49.9  T
     SCC iter.                  ...        0 min,  0.101 sec
     gradient                   ...        0 min,  0.001 sec
 * total energy  :   -21.8115280 Eh     change       -0.2242111E-05 Eh
   gradient norm :     0.0006620 Eh/α   predicted    -0.1070405E-05 ( -52.26%)
   displ. norm   :     0.0491243 α      lambda       -0.2721616E-05
   maximum displ.:     0.0378814 α      in ANC's #3, #2, #6, ...

........................................................................
.............................. CYCLE   34 ..............................
........................................................................

 iter      E             dE          RMSdq      gap      omega  full diag
   1    -22.1245904 -0.221246E+02  0.430E-02    3.74       0.0  T
   2    -22.1245904 -0.928131E-07  0.255E-02    3.74       1.1  T
   3    -22.1245905 -0.215967E-07  0.169E-03    3.74      16.4  T
   4    -22.1245905 -0.104227E-07  0.929E-04    3.74      29.8  T
   5    -22.1245905 -0.421256E-09  0.589E-04    3.74      47.1  T
     SCC iter.                  ...        0 min,  0.102 sec
     gradient                   ...        0 min,  0.002 sec
 * total energy  :   -21.8115307 Eh     change       -0.2710784E-05 Eh
   gradient norm :     0.0007147 Eh/α   predicted    -0.1361045E-05 ( -49.79%)
   displ. norm   :     0.0462415 α      lambda       -0.2401838E-05
   maximum displ.:     0.0347138 α      in ANC's #3, #1, #6, ...

........................................................................
.............................. CYCLE   35 ..............................
........................................................................

 iter      E             dE          RMSdq      gap      omega  full diag
   1    -22.1245274 -0.221245E+02  0.437E-02    3.75       0.0  T
   2    -22.1245275 -0.621341E-07  0.259E-02    3.75       1.1  T
   3    -22.1245270  0.480568E-06  0.641E-03    3.75       4.3  T
   4    -22.1245275 -0.532147E-06  0.113E-03    3.75      24.6  T
   5    -22.1245275 -0.467230E-08  0.509E-04    3.75      54.5  T
   6    -22.1245275 -0.927024E-09  0.189E-04    3.75     146.7  T
     SCC iter.                  ...        0 min,  0.103 sec
     gradient                   ...        0 min,  0.002 sec
 * total energy  :   -21.8115333 Eh     change       -0.2566686E-05 Eh
   gradient norm :     0.0008074 Eh/α   predicted    -0.1201481E-05 ( -53.19%)
   displ. norm   :     0.0514213 α      lambda       -0.2439318E-05
   maximum displ.:     0.0322733 α      in ANC's #3, #4, #2, ...

........................................................................
.............................. CYCLE   36 ..............................
........................................................................

 iter      E             dE          RMSdq      gap      omega  full diag
   1    -22.1244601 -0.221245E+02  0.403E-02    3.75       0.0  T
   2    -22.1244601 -0.474864E-07  0.239E-02    3.75       1.2  T
   3    -22.1244594  0.723560E-06  0.768E-03    3.75       3.6  T
   4    -22.1244602 -0.777946E-06  0.925E-04    3.75      30.0  T
   5    -22.1244602 -0.449501E-08  0.363E-04    3.75      76.4  T
     SCC iter.                  ...        0 min,  0.109 sec
     gradient                   ...        0 min,  0.001 sec
 * total energy  :   -21.8115358 Eh     change       -0.2500969E-05 Eh
   gradient norm :     0.0007355 Eh/α   predicted    -0.1221073E-05 ( -51.18%)
   displ. norm   :     0.0312502 α      lambda       -0.1476367E-05
   maximum displ.:     0.0221478 α      in ANC's #4, #3, #2, ...

........................................................................
.............................. CYCLE   37 ..............................
........................................................................

 iter      E             dE          RMSdq      gap      omega  full diag
   1    -22.1246436 -0.221246E+02  0.229E-02    3.75       0.0  T
   2    -22.1246436 -0.115660E-07  0.136E-02    3.75       2.0  T
   3    -22.1246431  0.465594E-06  0.613E-03    3.75       4.5  T
   4    -22.1246436 -0.497890E-06  0.474E-04    3.75      58.5  T
   5    -22.1246436 -0.113852E-08  0.190E-04    3.75     145.6  T
     SCC iter.                  ...        0 min,  0.107 sec
     gradient                   ...        0 min,  0.001 sec
 * total energy  :   -21.8115372 Eh     change       -0.1424759E-05 Eh
   gradient norm :     0.0004009 Eh/α   predicted    -0.7378036E-06 ( -48.22%)
   displ. norm   :     0.0391979 α      lambda       -0.7222701E-06
   maximum displ.:     0.0315613 α      in ANC's #4, #2, #3, ...

........................................................................
.............................. CYCLE   38 ..............................
........................................................................

 iter      E             dE          RMSdq      gap      omega  full diag
   1    -22.1245940 -0.221246E+02  0.150E-02    3.75       0.0  T
   2    -22.1245940 -0.992269E-08  0.896E-03    3.75       3.1  T
   3    -22.1245939  0.110121E-06  0.306E-03    3.75       9.1  T
   4    -22.1245940 -0.120183E-06  0.455E-04    3.75      60.9  T
   5    -22.1245940 -0.589797E-09  0.226E-04    3.75     122.9  T
     SCC iter.                  ...        0 min,  0.105 sec
     gradient                   ...        0 min,  0.001 sec
 * total energy  :   -21.8115378 Eh     change       -0.5584147E-06 Eh
   gradient norm :     0.0004704 Eh/α   predicted    -0.3611023E-06 ( -35.33%)
   displ. norm   :     0.0130809 α      lambda       -0.5455227E-06
   maximum displ.:     0.0096736 α      in ANC's #4, #2, #1, ...

........................................................................
.............................. CYCLE   39 ..............................
........................................................................

 iter      E             dE          RMSdq      gap      omega  full diag
   1    -22.1247387 -0.221247E+02  0.831E-03    3.75       0.0  T
   2    -22.1247387 -0.126859E-07  0.487E-03    3.75       5.7  T
   3    -22.1247387 -0.899821E-09  0.465E-04    3.75      59.6  T
   4    -22.1247387 -0.428312E-09  0.159E-04    3.75     174.2  T
     SCC iter.                  ...        0 min,  0.101 sec
     gradient                   ...        0 min,  0.001 sec
 * total energy  :   -21.8115381 Eh     change       -0.3520883E-06 Eh
   gradient norm :     0.0002264 Eh/α   predicted    -0.2742077E-06 ( -22.12%)
   displ. norm   :     0.0101952 α      lambda       -0.1347470E-06
   maximum displ.:     0.0058253 α      in ANC's #4, #2, #3, ...

........................................................................
.............................. CYCLE   40 ..............................
........................................................................

 iter      E             dE          RMSdq      gap      omega  full diag
   1    -22.1247493 -0.221247E+02  0.686E-03    3.75       0.0  T
   2    -22.1247493 -0.974396E-09  0.408E-03    3.75       6.8  T
   3    -22.1247493  0.205038E-07  0.127E-03    3.75      21.9  T
   4    -22.1247493 -0.218639E-07  0.143E-04    3.75     193.5  T
   5    -22.1247493 -0.145032E-09  0.629E-05    3.75     440.7  T
     SCC iter.                  ...        0 min,  0.108 sec
     gradient                   ...        0 min,  0.002 sec
 * total energy  :   -21.8115383 Eh     change       -0.1280426E-06 Eh
   gradient norm :     0.0001503 Eh/α   predicted    -0.6839492E-07 ( -46.58%)
   displ. norm   :     0.0064485 α      lambda       -0.5231786E-07
   maximum displ.:     0.0037549 α      in ANC's #3, #2, #4, ...

........................................................................
.............................. CYCLE   41 ..............................
........................................................................

 iter      E             dE          RMSdq      gap      omega  full diag
   1    -22.1247116 -0.221247E+02  0.398E-03    3.75       0.0  T
   2    -22.1247116 -0.390603E-09  0.237E-03    3.75      11.7  T
   3    -22.1247115  0.663846E-08  0.733E-04    3.75      37.8  T
   4    -22.1247116 -0.712031E-08  0.100E-04    3.75     276.9  T
     SCC iter.                  ...        0 min,  0.101 sec
     gradient                   ...        0 min,  0.002 sec
 * total energy  :   -21.8115383 Eh     change       -0.4378304E-07 Eh
   gradient norm :     0.0000876 Eh/α   predicted    -0.2625267E-07 ( -40.04%)
   displ. norm   :     0.0032342 α      lambda       -0.1507597E-07
   maximum displ.:     0.0022400 α      in ANC's #3, #4, #2, ...

   *** GEOMETRY OPTIMIZATION CONVERGED AFTER 41 ITERATIONS ***

------------------------------------------------------------------------
 total energy gain   :        -0.0068209 Eh       -4.2802 kcal/mol
 total RMSD          :         0.8522167 a0        0.4510 Å
 total power (kW/mol):        -0.4367875 (step)   -3.6545 (real)
------------------------------------------------------------------------

 ANCopt (total)                0 d,  0 h,  0 min,  4.900 sec
 optimizer setup                ...        0 min,  0.000 sec (  0.003%)
 model hessian                  ...        0 min,  0.005 sec (  0.108%)
 ANC generation                 ...        0 min,  0.001 sec (  0.011%)
 coordinate transformation      ...        0 min,  0.000 sec (  0.009%)
 single point calculation       ...        0 min,  4.874 sec ( 99.453%)
 optimization log               ...        0 min,  0.003 sec (  0.067%)
 hessian update                 ...        0 min,  0.009 sec (  0.194%)
 rational function              ...        0 min,  0.005 sec (  0.110%)

================
 final structure:
================
13
 xtb: 6.7.0 (08769fc)
C           -1.61775766658108       -1.28162691826335       -0.46153023203357
C           -1.03744403008668       -0.02257460775396        0.09991609264243
O           -1.49068458667119        0.59031211751535        1.03661749426660
C            0.24092212198640        0.48966912625231       -0.58373349779512
O            0.52657017102675        1.80460105099067       -0.17711344361007
C            1.30857846502135       -0.44430330389119       -0.22178235223439
C            2.19595511844477       -1.16319919728539        0.13713137111772
H           -2.12291273252392       -1.04312002783491       -1.39758222194617
H           -2.34254363083202       -1.70309291696435        0.23063289236377
H           -0.83076834698995       -2.00117277935872       -0.67557385879344
H            0.11734220306152        0.48928055989481       -1.67544738800219
H            0.06749530918923        1.93986487943433        0.66835397537789
H            2.97683481825497       -1.80627505673587        0.41755957164641
 
 Bond Distances (Angstroems)
 ---------------------------
C1-C2=1.4957         C1-H8=1.0901         C1-H9=1.0872         C1-H10=1.0876        C2-C1=1.4957         C2-O3=1.2077         
C2-C4=1.5375         O3-C2=1.2077         C4-C2=1.5375         C4-O5=1.4057         C4-C6=1.4640         C4-H11=1.0987        
O5-C4=1.4057         O5-H12=0.9715        C6-C4=1.4640         C6-C7=1.1971         C7-C6=1.1971         C7-H13=1.0497        
H8-C1=1.0901         H9-C1=1.0872         H10-C1=1.0876        H11-C4=1.0987        H12-O5=0.9715        H13-C7=1.0497        
 C  H  Rav=1.0827 sigma=0.0170  Rmin=1.0497  Rmax=1.0987     5
 C  C  Rav=1.4236 sigma=0.1333  Rmin=1.1971  Rmax=1.5375     4
 O  H  Rav=0.9715 sigma=0.0000  Rmin=0.9715  Rmax=0.9715     1
 O  C  Rav=1.3067 sigma=0.0990  Rmin=1.2077  Rmax=1.4057     2
 
 selected bond angles (degree)
 --------------------
H8-C1-C2=108.54                H9-C1-C2=110.24                H9-C1-H8=108.82                H10-C1-C2=110.49               
H10-C1-H8=108.12               H10-C1-H9=110.56               O3-C2-C1=124.94                C4-C2-C1=115.86                
C4-C2-O3=119.20                O5-C4-C2=110.61                C6-C4-C2=106.49                C6-C4-O5=112.15                
H11-C4-C2=110.38               H11-C4-O5=108.10               H11-C4-C6=109.12               H12-O5-C4=106.62               
C7-C6-C4=176.24                H13-C7-C6=178.00               
 
 selected dihedral angles (degree)
 ---------------------------------
O3-C2-C1-H8=104.83            O3-C2-C1-H9=345.74            O3-C2-C1-H10=223.23           C4-C2-C1-H8=284.12            
C4-C2-C1-H9=165.02            C4-C2-C1-H10= 42.51           O5-C4-C2-C1=167.19            O5-C4-C2-O3=346.51            
C6-C4-C2-C1=289.29            C6-C4-C2-O3=108.62            H11-C4-C2-C1= 47.60           H11-C4-C2-O3=226.93           
H12-O5-C4-C2= 21.57           H12-O5-C4-C6=262.85           H12-O5-C4-H11=142.52          C7-C6-C4-C2=270.30            
C7-C6-C4-O5= 31.43            C7-C6-C4-H11=151.16           H13-C7-C6-C4=201.14           
           -------------------------------------------------
          |                Final Singlepoint                |
           -------------------------------------------------

          ...................................................
          :                      SETUP                      :
          :.................................................:
          :  # basis functions                  34          :
          :  # atomic orbitals                  34          :
          :  # shells                           20          :
          :  # electrons                        38          :
          :  max. iterations                  4000          :
          :  Hamiltonian                  GFN2-xTB          :
          :  restarted?                      false          :
          :  GBSA solvation                   true          :
          :  PC potential                    false          :
          :  electronic temp.          300.0000000     K    :
          :  accuracy                    1.0000000          :
          :  -> integral cutoff          0.2500000E+02      :
          :  -> integral neglect         0.1000000E-07      :
          :  -> SCF convergence          0.1000000E-05 Eh   :
          :  -> wf. convergence          0.1000000E-03 e    :
          :  Broyden damping             0.4000000          :
          :  net charge                          0          :
          :  unpaired electrons                  0          :
          ...................................................

 iter      E             dE          RMSdq      gap      omega  full diag
   1    -22.1247116 -0.221247E+02  0.481E-05    3.75       0.0  T
   2    -22.1247116 -0.778044E-12  0.325E-05    3.75     853.5  T
   3    -22.1247116 -0.973444E-12  0.249E-05    3.75    1112.6  T

   *** convergence criteria satisfied after 3 iterations ***

         #    Occupation            Energy/Eh            Energy/eV
      -------------------------------------------------------------
         1        2.0000           -0.7388662             -20.1056
       ...           ...                  ...                  ...
        13        2.0000           -0.5065022             -13.7826
        14        2.0000           -0.4948233             -13.4648
        15        2.0000           -0.4830722             -13.1451
        16        2.0000           -0.4533122             -12.3353
        17        2.0000           -0.4362161             -11.8700
        18        2.0000           -0.4284933             -11.6599
        19        2.0000           -0.4128021             -11.2329 (HOMO)
        20                         -0.2750833              -7.4854 (LUMO)
        21                         -0.1807553              -4.9186
        22                         -0.1699094              -4.6235
        23                          0.0342713               0.9326
        24                          0.0582196               1.5842
       ...                                ...                  ...
        34                          1.4005717              38.1115
      -------------------------------------------------------------
                  HL-Gap            0.1377188 Eh            3.7475 eV
             Fermi-level           -0.3439427 Eh           -9.3592 eV

 SCC (total)                   0 d,  0 h,  0 min,  0.103 sec
 SCC setup                      ...        0 min,  0.000 sec (  0.251%)
 Dispersion                     ...        0 min,  0.000 sec (  0.040%)
 classical contributions        ...        0 min,  0.000 sec (  0.012%)
 integral evaluation            ...        0 min,  0.001 sec (  0.506%)
 iterations                     ...        0 min,  0.101 sec ( 97.880%)
 molecular gradient             ...        0 min,  0.001 sec (  1.177%)
 printout                       ...        0 min,  0.000 sec (  0.095%)

         :::::::::::::::::::::::::::::::::::::::::::::::::::::
         ::                     SUMMARY                     ::
         :::::::::::::::::::::::::::::::::::::::::::::::::::::
         :: total energy             -21.811538315508 Eh    ::
         :: total w/o Gsasa/hb       -21.803320549555 Eh    ::
         :: gradient norm              0.000088339740 Eh/a0 ::
         :: HOMO-LUMO gap              3.747519069990 eV    ::
         ::.................................................::
         :: SCC energy               -22.124692399700 Eh    ::
         :: -> isotropic ES            0.053053548063 Eh    ::
         :: -> anisotropic ES         -0.000075855041 Eh    ::
         :: -> anisotropic XC          0.009638829167 Eh    ::
         :: -> dispersion             -0.007767931674 Eh    ::
         :: -> Gsolv                  -0.010953459514 Eh    ::
         ::    -> Gelec               -0.002735693561 Eh    ::
         ::    -> Gsasa               -0.010425909092 Eh    ::
         ::    -> Ghb                  0.000000000000 Eh    ::
         ::    -> Gshift               0.002208143139 Eh    ::
         :: repulsion energy           0.313154084192 Eh    ::
         :: add. restraining           0.000000000000 Eh    ::
         :: total charge               0.000000000000 e     ::
         :::::::::::::::::::::::::::::::::::::::::::::::::::::

           -------------------------------------------------
          |                Property Printout                |
           -------------------------------------------------

    * Orbital Energies and Occupations

         #    Occupation            Energy/Eh            Energy/eV
      -------------------------------------------------------------
         1        2.0000           -0.7388662             -20.1056
       ...           ...                  ...                  ...
         7        2.0000           -0.5845216             -15.9056
         8        2.0000           -0.5777259             -15.7207
         9        2.0000           -0.5569478             -15.1553
        10        2.0000           -0.5450692             -14.8321
        11        2.0000           -0.5230664             -14.2334
        12        2.0000           -0.5100930             -13.8803
        13        2.0000           -0.5065022             -13.7826
        14        2.0000           -0.4948233             -13.4648
        15        2.0000           -0.4830722             -13.1451
        16        2.0000           -0.4533122             -12.3353
        17        2.0000           -0.4362161             -11.8700
        18        2.0000           -0.4284933             -11.6599
        19        2.0000           -0.4128021             -11.2329 (HOMO)
        20                         -0.2750833              -7.4854 (LUMO)
        21                         -0.1807553              -4.9186
        22                         -0.1699094              -4.6235
        23                          0.0342713               0.9326
        24                          0.0582196               1.5842
        25                          0.0867941               2.3618
        26                          0.1438440               3.9142
        27                          0.1539639               4.1896
        28                          0.1731325               4.7112
        29                          0.1943124               5.2875
        30                          0.2081773               5.6648
       ...                                ...                  ...
        34                          1.4005717              38.1115
      -------------------------------------------------------------
                  HL-Gap            0.1377188 Eh            3.7475 eV
             Fermi-level           -0.3439427 Eh           -9.3592 eV

     #   Z          covCN         q      C6AA      α(0)
     1   6 C        3.753    -0.145    23.356     6.891
     2   6 C        2.822     0.235    23.087     7.873
     3   8 O        0.857    -0.368    21.053     6.152
     4   6 C        3.729     0.112    18.839     6.196
     5   8 O        1.656    -0.441    21.665     6.283
     6   6 C        1.976    -0.031    31.894     9.120
     7   6 C        1.909    -0.091    33.602     9.362
     8   1 H        0.925     0.090     1.883     2.146
     9   1 H        0.925     0.080     1.977     2.199
    10   1 H        0.925     0.080     1.981     2.201
    11   1 H        0.923     0.072     2.066     2.248
    12   1 H        0.804     0.310     0.693     1.307
    13   1 H        0.928     0.098     1.801     2.098

 Mol. C6AA /au·bohr⁶  :       1792.237370
 Mol. C8AA /au·bohr⁸  :      41927.897047
 Mol. α(0) /au        :         64.076808


Wiberg/Mayer (AO) data.
largest (>0.10) Wiberg bond orders for each atom

 ---------------------------------------------------------------------------
     #   Z sym  total        # sym  WBO       # sym  WBO       # sym  WBO
 ---------------------------------------------------------------------------
     1   6 C    3.991 --     2 C    1.022     9 H    0.978    10 H    0.963
                             8 H    0.945
     2   6 C    3.908 --     3 O    1.850     1 C    1.022     4 C    0.933
     3   8 O    2.089 --     2 C    1.850
     4   6 C    3.965 --     5 O    0.998     6 C    0.996     2 C    0.933
                            11 H    0.929
     5   8 O    1.968 --     4 C    0.998    12 H    0.872
     6   6 C    3.975 --     7 C    2.898     4 C    0.996
     7   6 C    3.971 --     6 C    2.898    13 H    0.966
     8   1 H    0.992 --     1 C    0.945
     9   1 H    0.994 --     1 C    0.978
    10   1 H    0.994 --     1 C    0.963
    11   1 H    0.995 --     4 C    0.929
    12   1 H    0.904 --     5 O    0.872
    13   1 H    0.990 --     7 C    0.966
 ---------------------------------------------------------------------------

Topologies differ in total number of bonds
Writing topology from bond orders to xtbtopo.mol

molecular dipole:
                 x           y           z       tot (Debye)
 q only:       -0.055      -1.115      -0.599
   full:       -0.121      -1.262      -0.597       3.561
molecular quadrupole (traceless):
                xx          xy          yy          xz          yz          zz
 q only:        0.044       0.216       0.187       4.460       1.524      -0.230
  q+dip:        1.457      -2.800      -1.066       6.306       0.489      -0.391
   full:        0.520      -1.467      -0.740       5.988       0.982       0.220

           -------------------------------------------------
          |                Geometry Summary                 |
           -------------------------------------------------

      molecular mass/u    :       98.1001338
   center of mass at/Å    :       -0.0456881       0.0516768      -0.0109160
  moments of inertia/u·Å² :        0.1426785E+03   0.2141954E+03   0.2997024E+03
rotational constants/cm⁻¹ :        0.1181512E+00   0.7870211E-01   0.5624790E-01

 * 8 selected distances

     #   Z          #   Z                                           value/Å
     2   6 C        3   8 O                                       1.2076700
     4   6 C        5   8 O                                       1.4056959 (max)
     6   6 C        7   6 C                                       1.1971082
     1   6 C        8   1 H                                       1.0900737
     1   6 C        9   1 H                                       1.0872158
     1   6 C       10   1 H                                       1.0876182
     4   6 C       11   1 H                                       1.0986863
     5   8 O       12   1 H                                       0.9715253 (min)

 * 4 distinct bonds (by element types)

   Z      Z             #   av. dist./Å        max./Å        min./Å
   1 H    6 C           4     1.0908985     1.0986863     1.0872158
   6 C    6 C           1     1.1971082     1.1971082     1.1971082
   1 H    8 O           1     0.9715253     0.9715253     0.9715253
   6 C    8 O           2     1.3066830     1.4056959     1.2076700


optimized geometry written to: xtbopt.xyz


           -------------------------------------------------
          | TOTAL ENERGY              -21.811538315508 Eh   |
          | GRADIENT NORM               0.000088339740 Eh/α |
          | HOMO-LUMO GAP               3.747519069990 eV   |
           -------------------------------------------------

------------------------------------------------------------------------
 * finished run on 2024/08/07 at 19:59:58.165     
------------------------------------------------------------------------
 total:
 * wall-time:     0 d,  0 h,  0 min,  5.131 sec
 *  cpu-time:     0 d,  0 h,  0 min, 37.299 sec
 * ratio c/w:     7.270 speedup
 SCF:
 * wall-time:     0 d,  0 h,  0 min,  0.114 sec
 *  cpu-time:     0 d,  0 h,  0 min,  0.875 sec
 * ratio c/w:     7.658 speedup
 ANC optimizer:
 * wall-time:     0 d,  0 h,  0 min,  5.005 sec
 *  cpu-time:     0 d,  0 h,  0 min, 36.346 sec
 * ratio c/w:     7.263 speedup

