      -----------------------------------------------------------      
     |                   =====================                   |     
     |                           x T B                           |     
     |                   =====================                   |     
     |                         S. Grimme                         |     
     |          Mulliken Center for Theoretical Chemistry        |     
     |                    University of Bonn                     |     
      -----------------------------------------------------------      

   * xtb version 6.5.1 (fef0646) compiled by 'conda@b96dff2e9fd6' on 2023-01-04

   xtb is free software: you can redistribute it and/or modify it under
   the terms of the GNU Lesser General Public License as published by
   the Free Software Foundation, either version 3 of the License, or
   (at your option) any later version.
   
   xtb is distributed in the hope that it will be useful,
   but WITHOUT ANY WARRANTY; without even the implied warranty of
   MERCHANTABILITY or FITNESS FOR A PARTICULAR PURPOSE.  See the
   GNU Lesser General Public License for more details.
   
   Cite this work as:
   * C. Bannwarth, E. Caldeweyher, S. Ehlert, A. Hansen, P. Pracht,
     J. Seibert, S. Spicher, S. Grimme, WIREs Comput. Mol. Sci., 2020, 11,
     e01493. DOI: 10.1002/wcms.1493
   
   for GFN2-xTB:
   * C. Bannwarth, S. Ehlert and S. Grimme., J. Chem. Theory Comput., 2019,
     15, 1652-1671. DOI: 10.1021/acs.jctc.8b01176
   for GFN1-xTB:
   * S. Grimme, C. Bannwarth, P. Shushkov, J. Chem. Theory Comput., 2017,
     13, 1989-2009. DOI: 10.1021/acs.jctc.7b00118
   for GFN0-xTB:
   * P. Pracht, E. Caldeweyher, S. Ehlert, S. Grimme, ChemRxiv, 2019, preprint.
     DOI: 10.26434/chemrxiv.8326202.v1
   for GFN-FF:
   * S. Spicher and S. Grimme, Angew. Chem. Int. Ed., 2020, 59, 15665-15673.
     DOI: 10.1002/anie.202004239
   
   for ALPB and GBSA implicit solvation:
   * S. Ehlert, M. Stahn, S. Spicher, S. Grimme, J. Chem. Theory Comput.,
     2021, 17, 4250-4261. DOI: 10.1021/acs.jctc.1c00471
   
   for DFT-D4:
   * E. Caldeweyher, C. Bannwarth and S. Grimme, J. Chem. Phys., 2017,
     147, 034112. DOI: 10.1063/1.4993215
   * E. Caldeweyher, S. Ehlert, A. Hansen, H. Neugebauer, S. Spicher,
     C. Bannwarth and S. Grimme, J. Chem. Phys., 2019, 150, 154122.
     DOI: 10.1063/1.5090222
   * E. Caldeweyher, J.-M. Mewes, S. Ehlert and S. Grimme, Phys. Chem. Chem. Phys.
     2020, 22, 8499-8512. DOI: 10.1039/D0CP00502A
   
   for sTDA-xTB:
   * S. Grimme and C. Bannwarth, J. Chem. Phys., 2016, 145, 054103.
     DOI: 10.1063/1.4959605
   
   in the mass-spec context:
   * V. Asgeirsson, C. Bauer and S. Grimme, Chem. Sci., 2017, 8, 4879.
     DOI: 10.1039/c7sc00601b
   * J. Koopman and S. Grimme, ACS Omega 2019, 4, 12, 15120-15133.
     DOI: 10.1021/acsomega.9b02011
   
   for metadynamics refer to:
   * S. Grimme, J. Chem. Theory Comput., 2019, 155, 2847-2862
     DOI: 10.1021/acs.jctc.9b00143
   
   for SPH calculations refer to:
   * S. Spicher and S. Grimme, J. Chem. Theory Comput., 2021, 17, 1701-1714
     DOI: 10.1021/acs.jctc.0c01306
   
   with help from (in alphabetical order)
   P. Atkinson, C. Bannwarth, F. Bohle, G. Brandenburg, E. Caldeweyher
   M. Checinski, S. Dohm, S. Ehlert, S. Ehrlich, I. Gerasimov, C. Hölzer
   A. Katbashev, J. Koopman, C. Lavigne, S. Lehtola, F. März, M. Müller,
   F. Musil, H. Neugebauer, J. Pisarek, C. Plett, P. Pracht, F. Pultar,
   J. Seibert, P. Shushkov, S. Spicher, M. Stahn, M. Steiner, T. Strunk,
   J. Stückrath, T. Rose, and J. Unsleber
   
 * started run on 2024/06/14 at 02:58:23.917     

           -------------------------------------------------
          |                Calculation Setup                |
           -------------------------------------------------

          program call               : xtb crest_best.xyz --opt normal -c 0 --iterations 4000
          coordinate file            : crest_best.xyz
          omp threads                :                     8

   ID    Z sym.   atoms
    1    6 C      1, 3, 4, 6, 8-10, 12-19, 21-24, 28
    2    7 N      2, 7, 25, 27
    3   16 S      5, 11, 26
    4   34 Se     20
    5    1 H      29-38

           -------------------------------------------------
          |                 G F N 2 - x T B                 |
           -------------------------------------------------

        Reference                      10.1021/acs.jctc.8b01176
      * Hamiltonian:
        H0-scaling (s, p, d)           1.850000    2.230000    2.230000
        zeta-weighting                 0.500000
      * Dispersion:
        s8                             2.700000
        a1                             0.520000
        a2                             5.000000
        s9                             5.000000
      * Repulsion:
        kExp                           1.500000    1.000000
        rExp                           1.000000
      * Coulomb:
        alpha                          2.000000
        third order                    shell-resolved
        anisotropic                    true
        a3                             3.000000
        a5                             4.000000
        cn-shift                       1.200000
        cn-exp                         4.000000
        max-rad                        5.000000


          ...................................................
          :                      SETUP                      :
          :.................................................:
          :  # basis functions                 146          :
          :  # atomic orbitals                 142          :
          :  # shells                           70          :
          :  # electrons                       134          :
          :  max. iterations                  4000          :
          :  Hamiltonian                  GFN2-xTB          :
          :  restarted?                      false          :
          :  GBSA solvation                  false          :
          :  PC potential                    false          :
          :  electronic temp.          300.0000000     K    :
          :  accuracy                    1.0000000          :
          :  -> integral cutoff          0.2500000E+02      :
          :  -> integral neglect         0.1000000E-07      :
          :  -> SCF convergence          0.1000000E-05 Eh   :
          :  -> wf. convergence          0.1000000E-03 e    :
          :  Broyden damping             0.4000000          :
          ...................................................

 iter      E             dE          RMSdq      gap      omega  full diag
   1    -73.4509334 -0.734509E+02  0.500E+00    1.48       0.0  T
   2    -73.5208310 -0.698976E-01  0.303E+00    1.20       1.0  T
   3    -73.4983112  0.225198E-01  0.152E+00    0.91       1.0  T
   4    -73.5342026 -0.358914E-01  0.685E-01    1.07       1.0  T
   5    -73.5459676 -0.117650E-01  0.332E-01    0.92       1.0  T
   6    -73.5482937 -0.232608E-02  0.125E-01    0.98       1.0  T
   7    -73.5483148 -0.211082E-04  0.708E-02    0.97       1.0  T
   8    -73.5484086 -0.938516E-04  0.297E-02    0.98       1.0  T
   9    -73.5484158 -0.714671E-05  0.174E-02    0.97       1.0  T
  10    -73.5484171 -0.133682E-05  0.836E-03    0.97       1.9  T
  11    -73.5484177 -0.528199E-06  0.364E-03    0.97       4.5  T
  12    -73.5484178 -0.188183E-06  0.213E-03    0.97       7.6  T
  13    -73.5484179 -0.288756E-07  0.979E-04    0.97      16.6  T
  14    -73.5484179 -0.192903E-07  0.475E-04    0.97      34.2  T

   *** convergence criteria satisfied after 14 iterations ***

         #    Occupation            Energy/Eh            Energy/eV
      -------------------------------------------------------------
         1        2.0000           -0.7717380             -21.0001
       ...           ...                  ...                  ...
        61        2.0000           -0.4161233             -11.3233
        62        2.0000           -0.4084772             -11.1152
        63        2.0000           -0.4005648             -10.8999
        64        2.0000           -0.3966780             -10.7942
        65        2.0000           -0.3928182             -10.6891
        66        2.0000           -0.3889385             -10.5836
        67        2.0000           -0.3654616              -9.9447 (HOMO)
        68                         -0.3296680              -8.9707 (LUMO)
        69                         -0.2867905              -7.8040
        70                         -0.2710491              -7.3756
        71                         -0.2481236              -6.7518
        72                         -0.2406547              -6.5485
       ...                                ...                  ...
       142                          1.0031615              27.2974
      -------------------------------------------------------------
                  HL-Gap            0.0357936 Eh            0.9740 eV
             Fermi-level           -0.3475648 Eh           -9.4577 eV

 SCC (total)                   0 d,  0 h,  0 min,  0.349 sec
 SCC setup                      ...        0 min,  0.000 sec (  0.073%)
 Dispersion                     ...        0 min,  0.015 sec (  4.294%)
 classical contributions        ...        0 min,  0.004 sec (  1.131%)
 integral evaluation            ...        0 min,  0.013 sec (  3.812%)
 iterations                     ...        0 min,  0.300 sec ( 86.010%)
 molecular gradient             ...        0 min,  0.015 sec (  4.237%)
 printout                       ...        0 min,  0.002 sec (  0.431%)

         :::::::::::::::::::::::::::::::::::::::::::::::::::::
         ::                     SUMMARY                     ::
         :::::::::::::::::::::::::::::::::::::::::::::::::::::
         :: total energy             -72.510624284085 Eh    ::
         :: gradient norm              0.079467314434 Eh/a0 ::
         :: HOMO-LUMO gap              0.973993490119 eV    ::
         ::.................................................::
         :: SCC energy               -73.548417897898 Eh    ::
         :: -> isotropic ES            0.031061171298 Eh    ::
         :: -> anisotropic ES          0.005354602724 Eh    ::
         :: -> anisotropic XC          0.043220313236 Eh    ::
         :: -> dispersion             -0.059919638973 Eh    ::
         :: repulsion energy           1.038449615921 Eh    ::
         :: add. restraining           0.000000000000 Eh    ::
         :: total charge              -0.000000000000 e     ::
         :::::::::::::::::::::::::::::::::::::::::::::::::::::

      ----------------------------------------------------------- 
     |                   =====================                   |
     |                        A N C O P T                        |
     |                   =====================                   |
     |               Approximate Normal Coordinate               |
     |                Rational Function Optimizer                |
      ----------------------------------------------------------- 

          ...................................................
          :                      SETUP                      :
          :.................................................:
          :   optimization level            normal          :
          :   max. optcycles                   200          :
          :   ANC micro-cycles                  20          :
          :   degrees of freedom               108          :
          :.................................................:
          :   RF solver                   davidson          :
          :   write xtbopt.log                true          :
          :   linear?                        false          :
          :   energy convergence         0.5000000E-05 Eh   :
          :   grad. convergence          0.1000000E-02 Eh/α :
          :   maximium RF displ.         1.0000000          :
          :   Hlow (freq-cutoff)         0.1000000E-01      :
          :   Hmax (freq-cutoff)         5.0000000          :
          :   S6 in model hess.         20.0000000          :
          ...................................................

generating ANC from model Hessian ...
Using Lindh-Hessian (1995)
 Shifting diagonal of input Hessian by    9.9221524460246791E-003
 Lowest  eigenvalues of input Hessian
    0.000000    0.000000    0.000000    0.000000    0.000000    0.000000
    0.010000    0.010266    0.010642    0.010981    0.011525    0.012644
    0.013050    0.013812    0.015383    0.015935    0.018181    0.019902
 Highest eigenvalues
    1.972125    2.021323    2.038395    2.085072    2.160181    2.192355


........................................................................
.............................. CYCLE    1 ..............................
........................................................................
   1    -73.5484179 -0.735484E+02  0.239E-04    0.97       0.0  T
   2    -73.5484179 -0.396483E-10  0.184E-04    0.97      87.9  T
   3    -73.5484179 -0.822141E-09  0.103E-04    0.97     157.3  T
     SCC iter.                  ...        0 min,  0.139 sec
     gradient                   ...        0 min,  0.013 sec
 * total energy  :   -72.5106243 Eh     change       -0.3956146E-08 Eh
   gradient norm :     0.0794669 Eh/α   predicted     0.0000000E+00 (-100.00%)
   displ. norm   :     0.2471969 α      lambda       -0.1037828E-01
   maximum displ.:     0.0872198 α      in ANC's #33, #29, #56, ...

........................................................................
.............................. CYCLE    2 ..............................
........................................................................
   1    -73.5564106 -0.735564E+02  0.279E-01    0.99       0.0  T
   2    -73.5565037 -0.930494E-04  0.154E-01    1.00       1.0  T
   3    -73.5563649  0.138773E-03  0.831E-02    0.99       1.0  T
   4    -73.5565380 -0.173121E-03  0.322E-02    1.00       1.0  T
   5    -73.5565527 -0.146653E-04  0.184E-02    1.00       1.0  T
   6    -73.5565585 -0.584657E-05  0.819E-03    1.00       2.0  T
   7    -73.5565596 -0.109411E-05  0.441E-03    1.00       3.7  T
   8    -73.5565598 -0.202909E-06  0.238E-03    1.00       6.8  T
   9    -73.5565598 -0.218282E-07  0.902E-04    1.00      18.0  T
  10    -73.5565598 -0.112480E-07  0.339E-04    1.00      47.8  T
     SCC iter.                  ...        0 min,  0.223 sec
     gradient                   ...        0 min,  0.013 sec
 * total energy  :   -72.5175727 Eh     change       -0.6948457E-02 Eh
   gradient norm :     0.0382468 Eh/α   predicted    -0.5508870E-02 ( -20.72%)
   displ. norm   :     0.2415593 α      lambda       -0.3038636E-02
   maximum displ.:     0.1146052 α      in ANC's #6, #1, #9, ...

........................................................................
.............................. CYCLE    3 ..............................
........................................................................
   1    -73.5642913 -0.735643E+02  0.177E-01    1.01       0.0  T
   2    -73.5643363 -0.450091E-04  0.884E-02    1.02       1.0  T
   3    -73.5642471  0.891959E-04  0.637E-02    1.01       1.0  T
   4    -73.5643682 -0.121097E-03  0.241E-02    1.02       1.0  T
   5    -73.5643786 -0.104281E-04  0.111E-02    1.02       1.5  T
   6    -73.5643812 -0.262196E-05  0.396E-03    1.02       4.1  T
   7    -73.5643814 -0.141555E-06  0.190E-03    1.02       8.5  T
   8    -73.5643815 -0.777272E-07  0.801E-04    1.02      20.2  T
   9    -73.5643815 -0.172261E-08  0.380E-04    1.02      42.7  T
     SCC iter.                  ...        0 min,  0.213 sec
     gradient                   ...        0 min,  0.014 sec
 * total energy  :   -72.5194186 Eh     change       -0.1845824E-02 Eh
   gradient norm :     0.0163122 Eh/α   predicted    -0.1610378E-02 ( -12.76%)
   displ. norm   :     0.2036479 α      lambda       -0.6883793E-03
   maximum displ.:     0.1061962 α      in ANC's #1, #6, #2, ...

........................................................................
.............................. CYCLE    4 ..............................
........................................................................
   1    -73.5671048 -0.735671E+02  0.791E-02    1.02       0.0  T
   2    -73.5671168 -0.120453E-04  0.343E-02    1.02       1.0  T
   3    -73.5671048  0.120275E-04  0.251E-02    1.02       1.0  T
   4    -73.5671240 -0.192472E-04  0.114E-02    1.02       1.4  T
   5    -73.5671267 -0.267292E-05  0.441E-03    1.02       3.7  T
   6    -73.5671271 -0.348809E-06  0.167E-03    1.02       9.7  T
   7    -73.5671271 -0.949269E-08  0.997E-04    1.02      16.3  T
   8    -73.5671271 -0.313210E-07  0.364E-04    1.02      44.6  T
     SCC iter.                  ...        0 min,  0.205 sec
     gradient                   ...        0 min,  0.015 sec
 * total energy  :   -72.5199343 Eh     change       -0.5157598E-03 Eh
   gradient norm :     0.0090083 Eh/α   predicted    -0.3584744E-03 ( -30.50%)
   displ. norm   :     0.2845183 α      lambda       -0.5594795E-03
   maximum displ.:     0.1527966 α      in ANC's #1, #6, #2, ...

........................................................................
.............................. CYCLE    5 ..............................
........................................................................
   1    -73.5688244 -0.735688E+02  0.822E-02    1.03       0.0  T
   2    -73.5688376 -0.131881E-04  0.377E-02    1.02       1.0  T
   3    -73.5688292  0.840691E-05  0.228E-02    1.02       1.0  T
   4    -73.5688409 -0.116911E-04  0.128E-02    1.02       1.3  T
   5    -73.5688454 -0.449645E-05  0.473E-03    1.02       3.4  T
   6    -73.5688458 -0.399003E-06  0.168E-03    1.02       9.7  T
   7    -73.5688458 -0.377838E-09  0.110E-03    1.02      14.7  T
   8    -73.5688458 -0.338678E-07  0.440E-04    1.02      36.9  T
   9    -73.5688458 -0.115351E-08  0.282E-04    1.02      57.6  T
     SCC iter.                  ...        0 min,  0.211 sec
     gradient                   ...        0 min,  0.013 sec
 * total energy  :   -72.5203111 Eh     change       -0.3767910E-03 Eh
   gradient norm :     0.0061341 Eh/α   predicted    -0.3023856E-03 ( -19.75%)
   displ. norm   :     0.2167426 α      lambda       -0.2203365E-03
   maximum displ.:     0.1221049 α      in ANC's #1, #6, #2, ...

........................................................................
.............................. CYCLE    6 ..............................
........................................................................
   1    -73.5694219 -0.735694E+02  0.500E-02    1.03       0.0  T
   2    -73.5694245 -0.258076E-05  0.259E-02    1.02       1.0  T
   3    -73.5694213  0.318928E-05  0.132E-02    1.02       1.2  T
   4    -73.5694247 -0.344873E-05  0.603E-03    1.02       2.7  T
   5    -73.5694256 -0.913309E-06  0.243E-03    1.02       6.7  T
   6    -73.5694258 -0.146615E-06  0.100E-03    1.02      16.2  T
   7    -73.5694258 -0.760545E-08  0.553E-04    1.02      29.4  T
   8    -73.5694258 -0.523892E-08  0.298E-04    1.02      54.4  T
     SCC iter.                  ...        0 min,  0.193 sec
     gradient                   ...        0 min,  0.014 sec
 * total energy  :   -72.5204727 Eh     change       -0.1615830E-03 Eh
   gradient norm :     0.0067975 Eh/α   predicted    -0.1153761E-03 ( -28.60%)
   displ. norm   :     0.2084230 α      lambda       -0.1633308E-03
   maximum displ.:     0.1223715 α      in ANC's #1, #6, #2, ...

........................................................................
.............................. CYCLE    7 ..............................
........................................................................
   1    -73.5698574 -0.735699E+02  0.477E-02    1.02       0.0  T
   2    -73.5698583 -0.902136E-06  0.262E-02    1.02       1.0  T
   3    -73.5698496  0.864390E-05  0.167E-02    1.02       1.0  T
   4    -73.5698593 -0.972913E-05  0.379E-03    1.02       4.3  T
   5    -73.5698595 -0.189836E-06  0.196E-03    1.02       8.3  T
   6    -73.5698596 -0.505814E-07  0.884E-04    1.02      18.4  T
   7    -73.5698596 -0.753600E-08  0.452E-04    1.02      35.9  T
     SCC iter.                  ...        0 min,  0.177 sec
     gradient                   ...        0 min,  0.012 sec
 * total energy  :   -72.5205922 Eh     change       -0.1195023E-03 Eh
   gradient norm :     0.0055126 Eh/α   predicted    -0.8521328E-04 ( -28.69%)
   displ. norm   :     0.1797425 α      lambda       -0.1123447E-03
   maximum displ.:     0.1118167 α      in ANC's #1, #2, #6, ...

........................................................................
.............................. CYCLE    8 ..............................
........................................................................
   1    -73.5702057 -0.735702E+02  0.445E-02    1.02       0.0  T
   2    -73.5702068 -0.114062E-05  0.244E-02    1.01       1.0  T
   3    -73.5701991  0.771893E-05  0.156E-02    1.02       1.0  T
   4    -73.5702078 -0.871015E-05  0.458E-03    1.02       3.5  T
   5    -73.5702084 -0.513934E-06  0.180E-03    1.02       9.0  T
   6    -73.5702084 -0.474784E-07  0.762E-04    1.02      21.3  T
   7    -73.5702084 -0.686413E-09  0.461E-04    1.02      35.2  T
     SCC iter.                  ...        0 min,  0.180 sec
     gradient                   ...        0 min,  0.017 sec
 * total energy  :   -72.5206714 Eh     change       -0.7919659E-04 Eh
   gradient norm :     0.0033309 Eh/α   predicted    -0.5798936E-04 ( -26.78%)
   displ. norm   :     0.1376801 α      lambda       -0.6668047E-04
   maximum displ.:     0.0906185 α      in ANC's #1, #2, #8, ...

........................................................................
.............................. CYCLE    9 ..............................
........................................................................
   1    -73.5705285 -0.735705E+02  0.366E-02    1.01       0.0  T
   2    -73.5705295 -0.108498E-05  0.190E-02    1.01       1.0  T
   3    -73.5705267  0.279665E-05  0.987E-03    1.02       1.6  T
   4    -73.5705297 -0.297007E-05  0.425E-03    1.01       3.8  T
   5    -73.5705303 -0.570254E-06  0.157E-03    1.01      10.3  T
   6    -73.5705303 -0.402528E-07  0.645E-04    1.01      25.1  T
   7    -73.5705303 -0.718074E-10  0.393E-04    1.01      41.3  T
     SCC iter.                  ...        0 min,  0.178 sec
     gradient                   ...        0 min,  0.014 sec
 * total energy  :   -72.5207203 Eh     change       -0.4893284E-04 Eh
   gradient norm :     0.0024508 Eh/α   predicted    -0.3397647E-04 ( -30.57%)
   displ. norm   :     0.1240505 α      lambda       -0.5023366E-04
   maximum displ.:     0.0794183 α      in ANC's #1, #2, #8, ...

........................................................................
.............................. CYCLE   10 ..............................
........................................................................
   1    -73.5706154 -0.735706E+02  0.317E-02    1.01       0.0  T
   2    -73.5706162 -0.792150E-06  0.167E-02    1.01       1.0  T
   3    -73.5706152  0.928499E-06  0.669E-03    1.01       2.4  T
   4    -73.5706162 -0.952013E-06  0.301E-03    1.01       5.4  T
   5    -73.5706164 -0.271606E-06  0.121E-03    1.01      13.5  T
   6    -73.5706165 -0.366295E-07  0.439E-04    1.01      36.9  T
   7    -73.5706165 -0.197751E-08  0.251E-04    1.01      64.6  T
     SCC iter.                  ...        0 min,  0.202 sec
     gradient                   ...        0 min,  0.012 sec
 * total energy  :   -72.5207589 Eh     change       -0.3853848E-04 Eh
   gradient norm :     0.0026354 Eh/α   predicted    -0.2550887E-04 ( -33.81%)
   displ. norm   :     0.1364514 α      lambda       -0.4431623E-04
   maximum displ.:     0.0831066 α      in ANC's #1, #2, #8, ...

........................................................................
.............................. CYCLE   11 ..............................
........................................................................
   1    -73.5704291 -0.735704E+02  0.321E-02    1.01       0.0  T
   2    -73.5704296 -0.463392E-06  0.178E-02    1.01       1.0  T
   3    -73.5704285  0.104356E-05  0.646E-03    1.01       2.5  T
   4    -73.5704296 -0.112480E-05  0.241E-03    1.01       6.7  T
   5    -73.5704298 -0.116932E-06  0.105E-03    1.01      15.5  T
   6    -73.5704298 -0.161384E-07  0.530E-04    1.01      30.6  T
   7    -73.5704298 -0.661319E-08  0.190E-04    1.01      85.2  T
     SCC iter.                  ...        0 min,  0.201 sec
     gradient                   ...        0 min,  0.020 sec
 * total energy  :   -72.5207915 Eh     change       -0.3262760E-04 Eh
   gradient norm :     0.0028026 Eh/α   predicted    -0.2257174E-04 ( -30.82%)
   displ. norm   :     0.1228515 α      lambda       -0.2866575E-04
   maximum displ.:     0.0731776 α      in ANC's #1, #8, #2, ...

........................................................................
.............................. CYCLE   12 ..............................
........................................................................
   1    -73.5701693 -0.735702E+02  0.289E-02    1.01       0.0  T
   2    -73.5701696 -0.299906E-06  0.163E-02    1.01       1.0  T
   3    -73.5701684  0.120919E-05  0.598E-03    1.01       2.7  T
   4    -73.5701697 -0.128709E-05  0.205E-03    1.01       7.9  T
   5    -73.5701698 -0.976858E-07  0.811E-04    1.01      20.0  T
   6    -73.5701698 -0.589679E-08  0.396E-04    1.01      41.0  T
     SCC iter.                  ...        0 min,  0.174 sec
     gradient                   ...        0 min,  0.012 sec
 * total energy  :   -72.5208114 Eh     change       -0.1992589E-04 Eh
   gradient norm :     0.0023447 Eh/α   predicted    -0.1454979E-04 ( -26.98%)
   displ. norm   :     0.0791245 α      lambda       -0.1364190E-04
   maximum displ.:     0.0470442 α      in ANC's #1, #8, #2, ...

........................................................................
.............................. CYCLE   13 ..............................
........................................................................
   1    -73.5701695 -0.735702E+02  0.216E-02    1.01       0.0  T
   2    -73.5701698 -0.296412E-06  0.116E-02    1.01       1.4  T
   3    -73.5701693  0.450464E-06  0.429E-03    1.01       3.8  T
   4    -73.5701697 -0.380877E-06  0.226E-03    1.01       7.2  T
   5    -73.5701699 -0.178909E-06  0.749E-04    1.01      21.7  T
   6    -73.5701699 -0.127376E-07  0.285E-04    1.01      57.0  T
     SCC iter.                  ...        0 min,  0.167 sec
     gradient                   ...        0 min,  0.016 sec
 * total energy  :   -72.5208207 Eh     change       -0.9224033E-05 Eh
   gradient norm :     0.0014088 Eh/α   predicted    -0.6863977E-05 ( -25.59%)
   displ. norm   :     0.0584199 α      lambda       -0.5860950E-05
   maximum displ.:     0.0326490 α      in ANC's #1, #8, #4, ...

........................................................................
.............................. CYCLE   14 ..............................
........................................................................
   1    -73.5703887 -0.735704E+02  0.213E-02    1.01       0.0  T
   2    -73.5703892 -0.413586E-06  0.110E-02    1.01       1.5  T
   3    -73.5703889  0.309483E-06  0.460E-03    1.01       3.5  T
   4    -73.5703891 -0.286987E-06  0.232E-03    1.01       7.0  T
   5    -73.5703893 -0.139605E-06  0.832E-04    1.01      19.5  T
   6    -73.5703893 -0.205340E-07  0.303E-04    1.01      53.6  T
     SCC iter.                  ...        0 min,  0.167 sec
     gradient                   ...        0 min,  0.013 sec
 * total energy  :   -72.5208253 Eh     change       -0.4608686E-05 Eh
   gradient norm :     0.0007444 Eh/α   predicted    -0.2937270E-05 ( -36.27%)
   displ. norm   :     0.0212828 α      lambda       -0.1984602E-05
   maximum displ.:     0.0100729 α      in ANC's #3, #4, #2, ...

   *** GEOMETRY OPTIMIZATION CONVERGED AFTER 14 ITERATIONS ***

------------------------------------------------------------------------
 total energy gain   :        -0.0102010 Eh       -6.4012 kcal/mol
 total RMSD          :         0.2966599 a0        0.1570 Å
 total power (kW/mol):        -1.9130470 (step)   -8.9648 (real)
------------------------------------------------------------------------

 ANCopt (total)                0 d,  0 h,  0 min,  2.988 sec
 optimizer setup                ...        0 min,  0.000 sec (  0.003%)
 model hessian                  ...        0 min,  0.005 sec (  0.175%)
 ANC generation                 ...        0 min,  0.004 sec (  0.127%)
 coordinate transformation      ...        0 min,  0.000 sec (  0.013%)
 single point calculation       ...        0 min,  2.946 sec ( 98.613%)
 optimization log               ...        0 min,  0.002 sec (  0.061%)
 hessian update                 ...        0 min,  0.001 sec (  0.018%)
 rational function              ...        0 min,  0.002 sec (  0.057%)

================
 final structure:
================
38
 xtb: 6.5.1 (fef0646)
C            7.62069695467114        0.37691356228367        0.12356222837580
N            7.30332528867890        1.61156044270967        0.30018009801628
C            5.97142771469259        1.78016288798971        0.32141367461841
C            5.22606412914440        0.63372321508044        0.15482728267874
S            6.29034519175637       -0.72176561924271       -0.03854267417891
C            3.79866127541591        0.51151210273548        0.13286123508745
N            3.06444434210559        1.59529839791762        0.31989272151695
C            1.74074012817889        1.54582338883545        0.29454912381536
C            0.96706796516054        0.40813138213215        0.06246556376446
C           -0.46041809203557        0.37522599724546        0.01833218295547
S           -1.26479470409570       -1.16182428989682        0.13971027215070
C           -2.85431588082100       -0.45124644918642        0.07784060471305
C           -4.02532850880847       -1.29498096121826        0.15239329060441
C           -5.31521255536653       -0.75932724829061        0.18458165210364
C           -6.42001546867847       -1.58440453465777        0.25211211345589
C           -6.26572190653342       -2.96066400822212        0.29117374046049
C           -4.99199180794122       -3.50670805866718        0.26304509700977
C           -3.88523324897976       -2.68643980388032        0.19413443569149
C           -2.73656174144719        0.91434613788095       -0.05907610403855
Se          -3.97112421199616        2.32217157263874       -0.23757530347766
C           -2.48267088872642        3.44325926415928       -0.39969185627125
C           -1.29725878831259        2.80744180795267       -0.30831338760497
C           -1.39268259578991        1.39851493180083       -0.10246156451845
C            1.72215163279518       -0.78263466673051       -0.10478037124156
N            1.27051610179305       -2.01867177803512       -0.30229462480044
S            2.52524761686835       -3.01723597032817       -0.43264389687663
N            3.70046971215422       -1.93681734623599       -0.24838596485380
C            3.15455774898786       -0.73589143325346       -0.07386350541817
H            8.63197653185542        0.02498200411750        0.07615750676595
H            5.55130310876743        2.75849822541298        0.46032065019492
H            1.26713460165571        2.49295054702864        0.50153785661329
H           -5.45876628209419        0.31324559743753        0.16348754860996
H           -7.40840217654366       -1.15010978932826        0.27541568276837
H           -7.13173078706168       -3.60301346745734        0.34376871676283
H           -4.86241979259613       -4.57842266278376        0.29394264117676
H           -2.89507041688665       -3.11787813075274        0.16881156651082
H           -2.62288682660799        4.49804776079500       -0.55575162985367
H           -0.36120418626040        3.32658888501459       -0.41198468689288

 Bond Distances (Angstroems)
 ---------------------------
C1-N2=1.2870         C1-S5=1.7330         C1-H29=1.0718        N2-C1=1.2870         N2-C3=1.3427         C3-N2=1.3427         
C3-C4=1.3775         C3-H30=1.0738        C4-C3=1.3775         C4-S5=1.7342         C4-C6=1.4328         S5-C1=1.7330         
S5-C4=1.7342         C6-C4=1.4328         C6-N7=1.3224         C6-C28=1.4190        N7-C6=1.3224         N7-C8=1.3249         
C8-N7=1.3249         C8-C9=1.3953         C8-H31=1.0790        C9-C8=1.3953         C9-C10=1.4285        C9-C24=1.4199        
C10-C9=1.4285        C10-S11=1.7390       C10-C23=1.3895       S11-C10=1.7390       S11-C12=1.7422       C12-S11=1.7422       
C12-C13=1.4452       C12-C19=1.3775       C13-C12=1.4452       C13-C14=1.3971       C13-C18=1.3991       C14-C13=1.3971       
C14-C15=1.3805       C14-H32=1.0823       C15-C14=1.3805       C15-C16=1.3854       C15-H33=1.0798       C16-C15=1.3854       
C16-C17=1.3861       C16-H34=1.0795       C17-C16=1.3861       C17-C18=1.3793       C17-H35=1.0800       C18-C13=1.3991       
C18-C17=1.3793       C18-H36=1.0804       C19-C12=1.3775       C19-Se20=1.8810      C19-C23=1.4291       Se20-C19=1.8810      
Se20-C21=1.8705      C21-Se20=1.8705      C21-C22=1.3483       C21-H37=1.0755       C22-C21=1.3483       C22-C23=1.4271       
C22-H38=1.0754       C23-C10=1.3895       C23-C19=1.4291       C23-C22=1.4271       C24-C9=1.4199        C24-N25=1.3307       
C24-C28=1.4335       N25-C24=1.3307       N25-S26=1.6089       S26-N25=1.6089       S26-N27=1.6070       N27-S26=1.6070       
N27-C28=1.3307       C28-C6=1.4190        C28-C24=1.4335       C28-N27=1.3307       H29-C1=1.0718        H30-C3=1.0738        
H31-C8=1.0790        H32-C14=1.0823       H33-C15=1.0798       H34-C16=1.0795       H35-C17=1.0800       H36-C18=1.0804       
H37-C21=1.0755       H38-C22=1.0754       
 C  H  Rav=1.0777 sigma=0.0032  Rmin=1.0718  Rmax=1.0823    10
 C  C  Rav=1.4027 sigma=0.0254  Rmin=1.3483  Rmax=1.4452    19
 N  C  Rav=1.3230 sigma=0.0174  Rmin=1.2870  Rmax=1.3427     6
 S  C  Rav=1.7371 sigma=0.0037  Rmin=1.7330  Rmax=1.7422     4
 S  N  Rav=1.6079 sigma=0.0009  Rmin=1.6070  Rmax=1.6089     2
 Se C  Rav=1.8757 sigma=0.0052  Rmin=1.8705  Rmax=1.8810     2

 selected bond angles (degree)
 --------------------
S5-C1-N2=115.58                H29-C1-N2=123.62               H29-C1-S5=120.80               C3-N2-C1=111.55                
C4-C3-N2=115.49                H30-C3-N2=120.30               H30-C3-C4=124.21               S5-C4-C3=109.38                
C6-C4-C3=127.73                C6-C4-S5=122.89                C4-S5-C1= 88.00                N7-C6-C4=118.76                
C28-C6-C4=121.97               C28-C6-N7=119.28               C8-N7-C6=121.43                C9-C8-N7=125.99                
H31-C8-N7=113.71               H31-C8-C9=120.28               C10-C9-C8=125.31               C24-C9-C8=114.11               
C24-C9-C10=120.56              S11-C10-C9=118.71              C23-C10-C9=131.01              C23-C10-S11=110.28             

 selected dihedral angles (degree)
 ---------------------------------
C3-N2-C1-S5=  0.05            C3-N2-C1-H29=180.06           C4-C3-N2-C1=  0.00            H30-C3-N2-C1=180.04           
S5-C4-C3-N2=359.97            S5-C4-C3-H30=179.92           C6-C4-C3-N2=180.06            C6-C4-C3-H30=  0.00           
C4-S5-C1-N2=359.95            C4-S5-C1-H29=179.94           C1-S5-C4-C3=  0.04            C1-S5-C4-C6=179.96            
N7-C6-C4-C3=358.33            N7-C6-C4-S5=178.43            C28-C6-C4-C3=178.78           C28-C6-C4-S5=358.87           
C8-N7-C6-C4=179.20            C8-N7-C6-C28=358.77           C9-C8-N7-C6=359.17            H31-C8-N7-C6=177.63           
C10-C9-C8-N7=181.00           C10-C9-C8-H31=  2.63          C24-C9-C8-N7=  2.48           C24-C9-C8-H31=184.11          
S11-C10-C9-C8=196.03          S11-C10-C9-C24= 14.46         C23-C10-C9-C8= 15.56          C23-C10-C9-C24=193.99         
           -------------------------------------------------
          |                Final Singlepoint                |
           -------------------------------------------------

          ...................................................
          :                      SETUP                      :
          :.................................................:
          :  # basis functions                 146          :
          :  # atomic orbitals                 142          :
          :  # shells                           70          :
          :  # electrons                       134          :
          :  max. iterations                  4000          :
          :  Hamiltonian                  GFN2-xTB          :
          :  restarted?                      false          :
          :  GBSA solvation                  false          :
          :  PC potential                    false          :
          :  electronic temp.          300.0000000     K    :
          :  accuracy                    1.0000000          :
          :  -> integral cutoff          0.2500000E+02      :
          :  -> integral neglect         0.1000000E-07      :
          :  -> SCF convergence          0.1000000E-05 Eh   :
          :  -> wf. convergence          0.1000000E-03 e    :
          :  Broyden damping             0.4000000          :
          ...................................................

 iter      E             dE          RMSdq      gap      omega  full diag
   1    -73.5703893 -0.735704E+02  0.161E-04    1.01       0.0  T
   2    -73.5703893  0.604246E-10  0.146E-04    1.01     111.0  T
   3    -73.5703893 -0.658517E-09  0.511E-05    1.01     317.5  T

   *** convergence criteria satisfied after 3 iterations ***

         #    Occupation            Energy/Eh            Energy/eV
      -------------------------------------------------------------
         1        2.0000           -0.7741309             -21.0652
       ...           ...                  ...                  ...
        61        2.0000           -0.4158105             -11.3148
        62        2.0000           -0.4070685             -11.0769
        63        2.0000           -0.3980931             -10.8327
        64        2.0000           -0.3969062             -10.8004
        65        2.0000           -0.3936362             -10.7114
        66        2.0000           -0.3838004             -10.4437
        67        2.0000           -0.3629538              -9.8765 (HOMO)
        68                         -0.3257981              -8.8654 (LUMO)
        69                         -0.2860161              -7.7829
        70                         -0.2702766              -7.3546
        71                         -0.2502691              -6.8102
        72                         -0.2383699              -6.4864
       ...                                ...                  ...
       142                          0.9593873              26.1063
      -------------------------------------------------------------
                  HL-Gap            0.0371557 Eh            1.0111 eV
             Fermi-level           -0.3443760 Eh           -9.3709 eV

 SCC (total)                   0 d,  0 h,  0 min,  0.158 sec
 SCC setup                      ...        0 min,  0.000 sec (  0.075%)
 Dispersion                     ...        0 min,  0.000 sec (  0.305%)
 classical contributions        ...        0 min,  0.000 sec (  0.032%)
 integral evaluation            ...        0 min,  0.013 sec (  7.936%)
 iterations                     ...        0 min,  0.130 sec ( 82.259%)
 molecular gradient             ...        0 min,  0.013 sec (  8.451%)
 printout                       ...        0 min,  0.001 sec (  0.928%)

         :::::::::::::::::::::::::::::::::::::::::::::::::::::
         ::                     SUMMARY                     ::
         :::::::::::::::::::::::::::::::::::::::::::::::::::::
         :: total energy             -72.520825261283 Eh    ::
         :: gradient norm              0.000744672113 Eh/a0 ::
         :: HOMO-LUMO gap              1.011059361254 eV    ::
         ::.................................................::
         :: SCC energy               -73.570389300608 Eh    ::
         :: -> isotropic ES            0.031819367847 Eh    ::
         :: -> anisotropic ES          0.005429734212 Eh    ::
         :: -> anisotropic XC          0.042922775309 Eh    ::
         :: -> dispersion             -0.060172156340 Eh    ::
         :: repulsion energy           1.050190429995 Eh    ::
         :: add. restraining           0.000000000000 Eh    ::
         :: total charge              -0.000000000000 e     ::
         :::::::::::::::::::::::::::::::::::::::::::::::::::::

           -------------------------------------------------
          |                Property Printout                |
           -------------------------------------------------

    * Orbital Energies and Occupations

         #    Occupation            Energy/Eh            Energy/eV
      -------------------------------------------------------------
         1        2.0000           -0.7741309             -21.0652
       ...           ...                  ...                  ...
        55        2.0000           -0.4368432             -11.8871
        56        2.0000           -0.4304997             -11.7145
        57        2.0000           -0.4286171             -11.6633
        58        2.0000           -0.4260364             -11.5930
        59        2.0000           -0.4210222             -11.4566
        60        2.0000           -0.4162357             -11.3263
        61        2.0000           -0.4158105             -11.3148
        62        2.0000           -0.4070685             -11.0769
        63        2.0000           -0.3980931             -10.8327
        64        2.0000           -0.3969062             -10.8004
        65        2.0000           -0.3936362             -10.7114
        66        2.0000           -0.3838004             -10.4437
        67        2.0000           -0.3629538              -9.8765 (HOMO)
        68                         -0.3257981              -8.8654 (LUMO)
        69                         -0.2860161              -7.7829
        70                         -0.2702766              -7.3546
        71                         -0.2502691              -6.8102
        72                         -0.2383699              -6.4864
        73                         -0.2335712              -6.3558
        74                         -0.2330885              -6.3427
        75                         -0.2258111              -6.1446
        76                         -0.2207963              -6.0082
        77                         -0.2080418              -5.6611
        78                         -0.2004633              -5.4549
       ...                                ...                  ...
       142                          0.9593873              26.1063
      -------------------------------------------------------------
                  HL-Gap            0.0371557 Eh            1.0111 eV
             Fermi-level           -0.3443760 Eh           -9.3709 eV

     #   Z          covCN         q      C6AA      α(0)
     1   6 C        3.000     0.070    26.430     8.433
     2   7 N        1.951    -0.206    26.284     7.602
     3   6 C        3.188     0.037    26.700     8.430
     4   6 C        2.987     0.010    27.779     8.646
     5  16 S        2.281    -0.003   141.178    19.998
     6   6 C        2.958     0.081    26.196     8.395
     7   7 N        1.844    -0.237    27.043     7.707
     8   6 C        2.896     0.044    27.008     8.521
     9   6 C        3.000    -0.016    28.392     8.741
    10   6 C        2.981     0.012    27.735     8.639
    11  16 S        2.412    -0.004   141.215    20.001
    12   6 C        2.984     0.012    27.738     8.639
    13   6 C        3.002     0.014    27.690     8.632
    14   6 C        2.924    -0.031    28.765     8.795
    15   6 C        2.918    -0.026    28.652     8.778
    16   6 C        2.920    -0.027    28.683     8.782
    17   6 C        2.918    -0.026    28.650     8.777
    18   6 C        2.928    -0.032    28.797     8.800
    19   6 C        3.180     0.001    27.579     8.573
    20  34 Se       2.214    -0.060   237.759    26.868
    21   6 C        2.920    -0.021    28.539     8.760
    22   6 C        3.043    -0.040    28.947     8.824
    23   6 C        3.283    -0.009    26.733     8.315
    24   6 C        3.361     0.082    23.366     7.586
    25   7 N        1.883    -0.265    27.748     7.809
    26  16 S        2.681     0.360   127.232    18.985
    27   7 N        1.858    -0.264    27.709     7.802
    28   6 C        3.348     0.063    24.012     7.729
    29   1 H        0.926     0.060     2.196     2.317
    30   1 H        0.926     0.068     2.111     2.272
    31   1 H        0.926     0.049     2.338     2.391
    32   1 H        0.926     0.055     2.256     2.349
    33   1 H        0.926     0.038     2.469     2.457
    34   1 H        0.926     0.037     2.486     2.466
    35   1 H        0.926     0.037     2.485     2.465
    36   1 H        0.926     0.046     2.368     2.406
    37   1 H        0.926     0.049     2.333     2.388
    38   1 H        0.926     0.041     2.433     2.439

 Mol. C6AA /au·bohr⁶  :      36517.144476
 Mol. C8AA /au·bohr⁸  :    1184181.795371
 Mol. α(0) /au        :        311.518514


Wiberg/Mayer (AO) data.
largest (>0.10) Wiberg bond orders for each atom

 ---------------------------------------------------------------------------
     #   Z sym  total        # sym  WBO       # sym  WBO       # sym  WBO
 ---------------------------------------------------------------------------
     1   6 C    3.926 --     2 N    1.615     5 S    1.200    29 H    0.964
     2   7 N    3.129 --     1 C    1.615     3 C    1.307     5 S    0.158
     3   6 C    3.943 --     4 C    1.484     2 N    1.307    30 H    0.958
     4   6 C    3.951 --     3 C    1.484     5 S    1.154     6 C    1.136
     5  16 S    2.681 --     1 C    1.200     4 C    1.154     2 N    0.158
     6   6 C    3.937 --     7 N    1.414    28 C    1.179     4 C    1.136
     7   7 N    3.077 --     6 C    1.414     8 C    1.402
     8   6 C    3.965 --     7 N    1.402     9 C    1.379    31 H    0.954
     9   6 C    3.961 --     8 C    1.379    24 C    1.190    10 C    1.171
    10   6 C    3.938 --    23 C    1.366     9 C    1.171    11 S    1.141
    11  16 S    2.669 --    12 C    1.142    10 C    1.141
    12   6 C    3.914 --    19 C    1.440    11 S    1.142    13 C    1.119
    13   6 C    3.988 --    14 C    1.357    18 C    1.354    12 C    1.119
    14   6 C    3.978 --    15 C    1.460    13 C    1.357    32 H    0.935
                            17 C    0.102
    15   6 C    3.991 --    14 C    1.460    16 C    1.427    33 H    0.970
                            18 C    0.104
    16   6 C    3.955 --    15 C    1.427    17 C    1.423    34 H    0.971
    17   6 C    3.991 --    18 C    1.468    16 C    1.423    35 H    0.970
                            14 C    0.102
    18   6 C    3.978 --    17 C    1.468    13 C    1.354    36 H    0.960
                            15 C    0.104
    19   6 C    3.958 --    12 C    1.440    23 C    1.210    20 Se   1.098
    20  34 Se   2.624 --    21 C    1.147    19 C    1.098    22 C    0.103
    21   6 C    3.951 --    22 C    1.692    20 Se   1.147    37 H    0.960
    22   6 C    3.983 --    21 C    1.692    23 C    1.183    38 H    0.953
                            20 Se   0.103
    23   6 C    3.968 --    10 C    1.366    19 C    1.210    22 C    1.183
    24   6 C    3.969 --    25 N    1.390     9 C    1.190    28 C    1.178
    25   7 N    3.107 --    26 S    1.418    24 C    1.390    27 N    0.161
    26  16 S    3.174 --    27 N    1.433    25 N    1.418
    27   7 N    3.091 --    26 S    1.433    28 C    1.388    25 N    0.161
    28   6 C    3.973 --    27 N    1.388     6 C    1.179    24 C    1.178
    29   1 H    0.996 --     1 C    0.964
    30   1 H    0.995 --     3 C    0.958
    31   1 H    0.995 --     8 C    0.954
    32   1 H    0.997 --    14 C    0.935
    33   1 H    0.998 --    15 C    0.970
    34   1 H    0.998 --    16 C    0.971
    35   1 H    0.998 --    17 C    0.970
    36   1 H    0.998 --    18 C    0.960
    37   1 H    0.996 --    21 C    0.960
    38   1 H    0.998 --    22 C    0.953
 ---------------------------------------------------------------------------

Topologies differ in total number of bonds
Writing topology from bond orders to xtbtopo.mol

molecular dipole:
                 x           y           z       tot (Debye)
 q only:       -0.894      -0.932      -0.081
   full:       -0.988      -0.739      -0.174       3.168
molecular quadrupole (traceless):
                xx          xy          yy          xz          yz          zz
 q only:        1.148      -4.193       6.508      -2.423       0.183      -7.656
  q+dip:       -8.247      -9.504      13.062      -3.293      -1.446      -4.815
   full:      -11.303      -9.849       9.423      -3.274      -1.936       1.880

           -------------------------------------------------
          |                Geometry Summary                 |
           -------------------------------------------------

      molecular mass/u    :      481.4746891
   center of mass at/Å    :       -0.0316724       0.0205349      -0.0194658
  moments of inertia/u·Å² :        0.1840167E+04   0.8292758E+04   0.1007954E+05
rotational constants/cm⁻¹ :        0.9160924E-02   0.2032814E-02   0.1672460E-02

 * 42 selected distances

     #   Z          #   Z                                           value/Å
     1   6 C        2   7 N                                       1.2869623
     2   7 N        3   6 C                                       1.3426947
     3   6 C        4   6 C                                       1.3775493
     1   6 C        5  16 S                                       1.7329773
     4   6 C        5  16 S                                       1.7341963
     4   6 C        6   6 C                                       1.4327935
     6   6 C        7   7 N                                       1.3223647
     7   7 N        8   6 C                                       1.3248710
     8   6 C        9   6 C                                       1.3952687
     9   6 C       10   6 C                                       1.4285473
    10   6 C       11  16 S                                       1.7390453
    11  16 S       12   6 C                                       1.7422189
    13   6 C       14   6 C                                       1.3970548
    14   6 C       15   6 C                                       1.3805444
    15   6 C       16   6 C                                       1.3854324
    16   6 C       17   6 C                                       1.3861256
    13   6 C       18   6 C                                       1.3991165
    17   6 C       18   6 C                                       1.3793127
    12   6 C       19   6 C                                       1.3774816
    19   6 C       20  34 Se                                      1.8809518 (max)
    20  34 Se      21   6 C                                       1.8704581
    21   6 C       22   6 C                                       1.3482641
    10   6 C       23   6 C                                       1.3895427
    19   6 C       23   6 C                                       1.4290953
    22   6 C       23   6 C                                       1.4270795
     9   6 C       24   6 C                                       1.4198756
    24   6 C       25   7 N                                       1.3307046
    25   7 N       26  16 S                                       1.6088732
    26  16 S       27   7 N                                       1.6069856
     6   6 C       28   6 C                                       1.4190209
    24   6 C       28   6 C                                       1.4335022
    27   7 N       28   6 C                                       1.3306770
     1   6 C       29   1 H                                       1.0718160 (min)
     3   6 C       30   1 H                                       1.0737505
     8   6 C       31   1 H                                       1.0789794
    14   6 C       32   1 H                                       1.0823425
    15   6 C       33   1 H                                       1.0798442
    16   6 C       34   1 H                                       1.0795141
    17   6 C       35   1 H                                       1.0799611
    18   6 C       36   1 H                                       1.0803717
    21   6 C       37   1 H                                       1.0754507
    22   6 C       38   1 H                                       1.0753882

 * 6 distinct bonds (by element types)

   Z      Z             #   av. dist./Å        max./Å        min./Å
   1 H    6 C          10     1.0777418     1.0823425     1.0718160
   6 C    6 C          18     1.4003115     1.4335022     1.3482641
   6 C    7 N           6     1.3230457     1.3426947     1.2869623
   6 C   16 S           4     1.7371094     1.7422189     1.7329773
   7 N   16 S           2     1.6079294     1.6088732     1.6069856
   6 C   34 Se          2     1.8757049     1.8809518     1.8704581


optimized geometry written to: xtbopt.xyz


           -------------------------------------------------
          | TOTAL ENERGY              -72.520825261283 Eh   |
          | GRADIENT NORM               0.000744672113 Eh/α |
          | HOMO-LUMO GAP               1.011059361254 eV   |
           -------------------------------------------------

------------------------------------------------------------------------
 * finished run on 2024/06/14 at 02:58:27.439     
------------------------------------------------------------------------
 total:
 * wall-time:     0 d,  0 h,  0 min,  3.522 sec
 *  cpu-time:     0 d,  0 h,  0 min, 18.730 sec
 * ratio c/w:     5.318 speedup
 SCF:
 * wall-time:     0 d,  0 h,  0 min,  0.349 sec
 *  cpu-time:     0 d,  0 h,  0 min,  2.069 sec
 * ratio c/w:     5.928 speedup
 ANC optimizer:
 * wall-time:     0 d,  0 h,  0 min,  3.147 sec
 *  cpu-time:     0 d,  0 h,  0 min, 16.481 sec
 * ratio c/w:     5.237 speedup

