38
 energy: -72.510624288041 gnorm: 0.079466939740 xtb: 6.5.1 (fef0646)
C            7.69270024170000        0.47616017900000        0.18883928920000
N            7.33387615690000        1.71128366010000        0.32104606410000
C            5.97618554010000        1.85540011880000        0.30071610630000
C            5.25140431420000        0.70372629260000        0.14651314620000
S            6.35465188440000       -0.61687034880000        0.02776551270000
C            3.81980830170000        0.57570037910000        0.08835551460000
N            3.06263722860000        1.66000491900000        0.20434842290000
C            1.72970111680000        1.51255415470000        0.14451624400000
C            1.02448305730000        0.34089890650000       -0.04007055960000
C           -0.41429221120000        0.26967391840000       -0.07283680220000
S           -1.24210161810000       -1.26241784920000       -0.03727589980000
C           -2.84512402630000       -0.57444949940000        0.02210608370000
C           -4.07828331160000       -1.34410084300000        0.12121834880000
C           -5.33268679570000       -0.73304619960000        0.14918608410000
C           -6.48234070780000       -1.48215980290000        0.24383326920000
C           -6.40777466000000       -2.85840837960000        0.31328102030000
C           -5.17788549730000       -3.48390984940000        0.28844050080000
C           -4.02663413330000       -2.73547966930000        0.19340134620000
C           -2.71359897140000        0.78446098810000       -0.04928051100000
Se          -3.93205067640000        2.23309422820000       -0.07173197930000
C           -2.45167995520000        3.39729378290000       -0.23634830670000
C           -1.28763143770000        2.74801024530000       -0.24243440770000
C           -1.37338465640000        1.27827251300000       -0.12095325090000
C            1.80820055190000       -0.85823295640000       -0.14485451000000
N            1.40673636530000       -2.10294007260000       -0.28147082210000
S            2.73633142660000       -3.06756879770000       -0.34168874890000
N            3.86691994490000       -1.88839345580000       -0.17931673440000
C            3.24288064290000       -0.73134619650000       -0.08051007220000
H            8.72236899650000        0.16845440030000        0.18141838800000
H            5.51247694280000        2.82789356030000        0.39570028710000
H            1.17454907150000        2.41715085060000        0.29909358120000
H           -5.39586131700000        0.33738267410000        0.09488544470000
H           -7.44258594330000       -0.99362275060000        0.26311169370000
H           -7.30907863000000       -3.44442501330000        0.38669023900000
H           -5.11863610900000       -4.55829490870000        0.34416012570000
H           -3.06601624590000       -3.21960805830000        0.17351735990000
H           -2.56098218990000        4.46089595420000       -0.33096996570000
H           -0.35496351350000        3.26732481890000       -0.37124958550000
38
 energy: -72.517572745082 gnorm: 0.038246836349 xtb: 6.5.1 (fef0646)
C            7.66281526985093        0.48754319288861        0.18951239554525
N            7.31449787457768        1.72204205803280        0.32166509072724
C            5.97341981709071        1.86133414033796        0.29907470420422
C            5.25571782668210        0.69748823746773        0.14393966256861
S            6.35120956135344       -0.63642515179726        0.02216257617414
C            3.82577781960425        0.55536766827973        0.08646628325209
N            3.06262845727931        1.62501402595537        0.20590165324820
C            1.73323351754174        1.49962486250403        0.15615469131165
C            1.00816204948178        0.33259763212649       -0.03412864846823
C           -0.42791811076884        0.27474804329284       -0.07416515152406
S           -1.24987807818115       -1.26347029679630       -0.00575423009772
C           -2.84319774463501       -0.54548348769047        0.02100309533222
C           -4.06088501968414       -1.33516359286930        0.11712993540935
C           -5.32093645903322       -0.72962205038380        0.14571617023255
C           -6.47159230324619       -1.48338993600779        0.24245876936668
C           -6.39687692674478       -2.86341907370538        0.31289256193810
C           -5.15906454375809       -3.48386928348236        0.28738302344248
C           -4.00472561283766       -2.73104480660047        0.19134709466739
C           -2.71106318516056        0.82325196935218       -0.05217947827946
Se          -3.95017465658784        2.25302659110981       -0.07496693699657
C           -2.45392389652940        3.37867073715234       -0.24020989356507
C           -1.27799423302422        2.73531547896503       -0.24975889346289
C           -1.36756353260168        1.29814829466209       -0.12139316066414
C            1.79936992017863       -0.85228809951200       -0.14271897737875
N            1.40206329015265       -2.10182341031857       -0.28836323411865
S            2.71937728800110       -3.06635406894739       -0.34250496644024
N            3.84656499261977       -1.89886837882012       -0.18382069566129
C            3.23355726825628       -0.73355769336993       -0.08151490333729
H            8.68822779669066        0.17368013812060        0.18207927261339
H            5.52003156684818        2.83159865227666        0.39743826905932
H            1.20170594609511        2.42304598578085        0.30802034369892
H           -5.40040403032170        0.34520959236747        0.09315812733057
H           -7.43328277072338       -0.99326092474622        0.26274051216007
H           -7.29964046530989       -3.45116100069419        0.38728541434832
H           -5.09773674923164       -4.55991980738286        0.34306483585316
H           -3.04158058297221       -3.21725789600292        0.17185307388086
H           -2.58015355600997        4.44240444426410       -0.32695377218711
H           -0.34744862784279        3.25662910719064       -0.37886269778356
38
 energy: -72.519418569448 gnorm: 0.016312225719 xtb: 6.5.1 (fef0646)
C            7.64640654051528        0.49348787516533        0.18814226145431
N            7.29705925113028        1.72491293798160        0.32093650726833
C            5.96400803195306        1.85992487906398        0.29794508155556
C            5.25208671904752        0.68897375700501        0.14145941234431
S            6.35092307417626       -0.64610577301270        0.01742587224963
C            3.82573737681907        0.53305191022667        0.08691452020037
N            3.05852678030605        1.59576159885105        0.21294511419717
C            1.73451016457708        1.49362581829049        0.16888503060369
C            0.99191719263494        0.33077267266777       -0.02685970713584
C           -0.43994042213340        0.28444426513295       -0.06991387286873
S           -1.25840884484342       -1.25597100027594        0.01477413136657
C           -2.84542484395938       -0.52513241054156        0.02912487941620
C           -4.04790444126165       -1.32944431728739        0.12011316709082
C           -5.31310785982487       -0.73297601065603        0.14616569537896
C           -6.46045390740656       -1.49320364642263        0.24136966479563
C           -6.37904889367495       -2.87431918001540        0.31190539005633
C           -5.13393564701338       -3.48479938773252        0.28542166433611
C           -3.98244418711696       -2.72609499691969        0.19072691671631
C           -2.71184763996531        0.84611999854412       -0.05154819980827
Se          -3.94089364480286        2.27474114327975       -0.08753019646577
C           -2.45043399020216        3.38595475336614       -0.25000467143145
C           -1.27175269048634        2.73549736820248       -0.25969074807997
C           -1.36769283329691        1.31833051298312       -0.12345904551864
C            1.78521827109544       -0.84546608703358       -0.13969940654047
N            1.38513701761582       -2.09917923133429       -0.29102927474407
S            2.68605916352687       -3.06499996667629       -0.35262578181070
N            3.81659051111289       -1.91888715894181       -0.19029090956258
C            3.21914906077377       -0.74144783186908       -0.08170630977374
H            8.66943561637865        0.17374029265249        0.18173221400090
H            5.51579290709493        2.82942071704897        0.39841064178400
H            1.22879470327182        2.43212323633183        0.33168869140851
H           -5.41044958156807        0.34325944513122        0.09339333486225
H           -7.42380828764509       -1.00453400777554        0.26165061204745
H           -7.27915295010957       -3.46682052878376        0.38697124734391
H           -5.06529518326391       -4.56124698212916        0.34071684498077
H           -3.01652695686115       -3.21039042056325        0.17102717536341
H           -2.58442614077948        4.44987981388754       -0.33451096875012
H           -0.34208425871444        3.25735783515823       -0.38982506193190
38
 energy: -72.519934329258 gnorm: 0.009008307952 xtb: 6.5.1 (fef0646)
C            7.64285219997100        0.49189965730431        0.18582391138520
N            7.28799132549179        1.72129031377463        0.31974139153373
C            5.95426512024531        1.85278429147544        0.29744622241171
C            5.24604353071077        0.67959087963529        0.14006510116095
S            6.35146789708106       -0.65065534198485        0.01385612396099
C            3.82234225145646        0.51775754345199        0.08899098180286
N            3.05658410582335        1.58310615523380        0.22364907511553
C            1.73541853017397        1.49467612793715        0.18327717502426
C            0.98519266518437        0.33467414443488       -0.01855149616124
C           -0.44343935501579        0.29356456953315       -0.06255017015967
S           -1.26236486675972       -1.24434148023368        0.02551200224770
C           -2.84750059823954       -0.51218476893689        0.03455364785698
C           -4.04215737257818       -1.32310091942561        0.12336669273951
C           -5.31090834780016       -0.73520400007132        0.14806233321416
C           -6.45276579231539       -1.50404708475256        0.24130204162345
C           -6.36128108196573       -2.88484269660524        0.31111006626341
C           -5.11136416626726       -3.48536995709093        0.28443775734333
C           -3.96592410872455       -2.71897833131103        0.19169605373741
C           -2.71436048703353        0.85818726285382       -0.05202001382925
Se          -3.93782526153843        2.28737006780120       -0.09438070357445
C           -2.44956527686857        3.39627209134644       -0.26425603480492
C           -1.26912792411952        2.74378656863909       -0.26601307297574
C           -1.36848665138405        1.33032812846293       -0.12310525752244
C            1.77388141236123       -0.84140920455703       -0.13739511032101
N            1.36471548066225       -2.09508969034470       -0.29422615558854
S            2.65317600671731       -3.06537476295237       -0.36087697006808
N            3.79244806119067       -1.93734639648027       -0.19899570629586
C            3.20776359661422       -0.75078070315018       -0.08259235325991
H            8.66540855932301        0.17045850565215        0.17883885282904
H            5.50512546570503        2.82204168671324        0.39906104330698
H            1.24291254659608        2.43885513199788        0.35440810678371
H           -5.41808411308007        0.34066833667806        0.09582277543347
H           -7.41877995397789       -1.02098440196642        0.26032474723151
H           -7.25649208932751       -3.48424924872870        0.38534165827450
H           -5.03370201535577       -4.56151845173274        0.33756672697968
H           -2.99704144838548       -3.19765934218130        0.17124121697762
H           -2.58457811021866        4.45964609832138       -0.35282036969944
H           -0.33952055725240        3.26654111425919       -0.39656037457840
38
 energy: -72.520311120242 gnorm: 0.006134076561 xtb: 6.5.1 (fef0646)
C            7.63998552010906        0.48598591130735        0.18087370010760
N            7.27792903619036        1.71325273001575        0.31690962709973
C            5.94170775101829        1.83934463674221        0.29702214332006
C            5.23803141312444        0.66450252173189        0.13923544292112
S            6.35109203362075       -0.65908468136798        0.00953676481247
C            3.81654149980358        0.49977790328382        0.09302846298434
N            3.05696309226408        1.57250041330826        0.24002573474544
C            1.73751837678235        1.49955596781059        0.20365099872982
C            0.98015546674730        0.34386219989042       -0.00667143713131
C           -0.44572982933876        0.30734067857850       -0.05077383863445
S           -1.26533252485335       -1.22645365747164        0.04043707822881
C           -2.84945057077660       -0.49563727516286        0.04267409818167
C           -4.03738137125820       -1.31326489105397        0.12824127817593
C           -5.31117841537683       -0.73796519821826        0.15169520618850
C           -6.44415052439146       -1.52076915092536        0.24134674290216
C           -6.33659589744611       -2.90053262058179        0.30903278982157
C           -5.08052944757062       -3.48702730769125        0.28273469800041
C           -3.94485440002340       -2.70785615296845        0.19335647635540
C           -2.71774785690478        0.87297065481052       -0.05126871150977
Se          -3.93805662877129        2.30226428585216       -0.11402998640633
C           -2.44839209704110        3.41194541989225       -0.28152906093609
C           -1.26740637053163        2.75831301926976       -0.27298814162973
C           -1.37007815088383        1.34486819120257       -0.12017172463758
C            1.75956960940354       -0.83564215504923       -0.13389440759698
N            1.33486713633390       -2.08701249346108       -0.29681572325487
S            2.60832397483419       -3.06523431865862       -0.37466485773832
N            3.76157632683646       -1.96002788990145       -0.21027068343126
C            3.19323079006530       -0.76272921806623       -0.08383697371446
H            8.66264076728805        0.16490234073708        0.17188604992443
H            5.48914658191212        2.80769095830409        0.39983205022098
H            1.25594993558964        2.44692737762076        0.38497440505560
H           -5.42840212726135        0.33680759423658        0.10139284796631
H           -7.41513777967083       -1.04842116855877        0.25891703536104
H           -7.22406190564880       -3.51096039370665        0.38124034544389
H           -4.98913452406302       -4.56233448532630        0.33304346199560
H           -2.97098181143251       -3.17585894496362        0.17263669611616
H           -2.58156486734249        4.47425832876169       -0.38176034093865
H           -0.33674303423687        3.28010276277756       -0.40389633070119
38
 energy: -72.520472703217 gnorm: 0.006797529728 xtb: 6.5.1 (fef0646)
C            7.63727708236681        0.47789748958291        0.17576814609790
N            7.27242747471763        1.70421955748176        0.31382809209176
C            5.93503429442573        1.82713906366630        0.29723423842526
C            5.23350929269530        0.65179254348971        0.14000769609224
S            6.34895235396541       -0.66898056074915        0.00608567563197
C            3.81196962766532        0.48934295504598        0.09768916754399
N            3.05978618110555        1.56808595463661        0.25305115517034
C            1.74001527664671        1.50469166585940        0.21921518851107
C            0.97803975332666        0.35326554593378        0.00348221333649
C           -0.44756787623770        0.31945281114186       -0.04094644740898
S           -1.26649853238951       -1.21241740017619        0.05341309132101
C           -2.85057204170485       -0.48327363998102        0.04689378960991
C           -4.03534297302082       -1.30557721154857        0.13165977791190
C           -5.31323737307654       -0.74033979514010        0.15501350078028
C           -6.43878877868057       -1.53462411448937        0.24169367203125
C           -6.31837462989174       -2.91333229446050        0.30683105562325
C           -5.05772918671936       -3.48930882925948        0.28141434723706
C           -3.92989974500941       -2.69923796134470        0.19489258921165
C           -2.72021161499136        0.88438872653066       -0.05305829334976
Se          -3.94080634269968        2.31322372442465       -0.12798901869474
C           -2.44871808376685        3.42311443825987       -0.30030419355197
C           -1.26813499919280        2.77018971853918       -0.27753838161735
C           -1.37218364380153        1.35602518476438       -0.11779267667940
C            1.74956366708776       -0.83016903263170       -0.13076104740537
N            1.31315913163412       -2.07812211972844       -0.29889670473936
S            2.57757151687044       -3.06387286068122       -0.38529982874941
N            3.74077193005051       -1.97176610038395       -0.21895962348682
C            3.18285460956043       -0.76894021767539       -0.08437928178993
H            8.66031671214653        0.15832821608501        0.16386524074903
H            5.47975163900660        2.79432655565073        0.40157288374262
H            1.26223576983784        2.45242911604460        0.40669054641000
H           -5.43652039585579        0.33363964095199        0.10763423302106
H           -7.41444987206316       -1.07215531210611        0.25882086411469
H           -7.19984470407284       -3.53256832073436        0.37658455694879
H           -4.95567029508728       -4.56368019376009        0.32970336668215
H           -2.95157316006151       -3.15744221188679        0.17429459011588
H           -2.57960619894321        4.48497714010039       -0.40760127337936
H           -0.33518668874346        3.28964002154775       -0.40266099116169
38
 energy: -72.520592205467 gnorm: 0.005512645258 xtb: 6.5.1 (fef0646)
C            7.63406032403442        0.46628140188270        0.16926967197710
N            7.26970448653771        1.69237643622666        0.30994464947568
C            5.93213353768231        1.81453686640814        0.29799078813528
C            5.23064971742518        0.63951701962995        0.14188043717282
S            6.34469790831128       -0.68123907102542        0.00276192290703
C            3.80773228629810        0.48282919382468        0.10319604530632
N            3.06372711201771        1.56628054439757        0.26554446033184
C            1.74280253639542        1.51012537859819        0.23381331704386
C            0.97640889280031        0.36371355734767        0.01378240819916
C           -0.45007692930425        0.33248759313368       -0.03056197940473
S           -1.26743046685064       -1.19882283976299        0.06792752736605
C           -2.85170859078998       -0.47154875001290        0.05239533858518
C           -4.03409371453276       -1.29863570352241        0.13543952674279
C           -5.31594554821929       -0.74307158121672        0.15918059968520
C           -6.43415670038003       -1.54841284737663        0.24232817890471
C           -6.30162467669101       -2.92602617193997        0.30393717399428
C           -5.03668655394711       -3.49226732748425        0.27969305979199
C           -3.91642009294307       -2.69147306655084        0.19630273874013
C           -2.72268615376874        0.89560251456104       -0.05394222286479
Se          -3.94577031242251        2.32249343681237       -0.15267760354146
C           -2.45051123671827        3.43346583268813       -0.31494276341424
C           -1.27074104933383        2.78187875163748       -0.28090958085725
C           -1.37509918164196        1.36742164742732       -0.11409840045312
C            1.74050589454725       -0.82390312146657       -0.12732636385472
N            1.29461499292652       -2.06763298116760       -0.30063479773950
S            2.55280385287466       -3.06099942244513       -0.39616163949649
N            3.72359176564529       -1.97712233868932       -0.22651848786436
C            3.17339270493688       -0.77162619558641       -0.08419452343301
H            8.65741672266274        0.14801648204469        0.15345025629243
H            5.47513750640342        2.78062782889096        0.40458360565175
H            1.26634631882356        2.45750468393576        0.42627396737009
H           -5.44446608532575        0.33036869795668        0.11551694133885
H           -7.41468555611853       -1.09624850687134        0.25958880605238
H           -7.17757661806003       -3.55351064584014        0.37038622019275
H           -4.92470091957878       -4.56554413637281        0.32612356672234
H           -2.93357853075047       -3.13963120633025        0.17616310524612
H           -2.58013347440708        4.49451847401157       -0.43275528228633
H           -0.33531499143948        3.29803146524692       -0.40159875161929
38
 energy: -72.520671402059 gnorm: 0.003330942722 xtb: 6.5.1 (fef0646)
C            7.63079570970414        0.45181576420617        0.16211430141752
N            7.27056342331734        1.67859314895044        0.30592224698536
C            5.93369901959696        1.80374535924907        0.29949426106630
C            5.22921318259291        0.63035568178170        0.14451810017696
S            6.33809972053262       -0.69338580148484       -0.00093375825772
C            3.80438612192561        0.48140282072659        0.10904730770835
N            3.06683853413571        1.56708811413379        0.27687025407020
C            1.74461656413289        1.51537988051661        0.24676888313286
C            0.97446496946709        0.37349778590431        0.02400985179701
C           -0.45306831702567        0.34452659492384       -0.02022959617373
S           -1.26825474455110       -1.18748070581490        0.08242701889588
C           -2.85307229521225       -0.46225919672280        0.05577008324336
C           -4.03300278630776       -1.29383951814688        0.13831767569412
C           -5.31802302940102       -0.74603989175902        0.16315832770306
C           -6.43023645159679       -1.56003532072194        0.24319586677403
C           -6.28829740565192       -2.93678348558605        0.30104118231344
C           -5.01988423367333       -3.49529232425735        0.27786149757407
C           -3.90569163650109       -2.68598216720039        0.19729452650946
C           -2.72531684632491        0.90467395110643       -0.05684466529340
Se          -3.95064712356175        2.32910517298313       -0.16970635325593
C           -2.45462861516872        3.44069115990411       -0.33450226212992
C           -1.27463824454493        2.79157454695226       -0.28407328274755
C           -1.37851689884000        1.37761796821878       -0.11123410768857
C            1.73311249666348       -0.81739453406490       -0.12351653386295
N            1.28186167727786       -2.05724865444424       -0.30224824554775
S            2.53713733183038       -3.05643194711469       -0.40580060658279
N            3.71192776824344       -1.97557730485832       -0.23253828306314
C            3.16586146209225       -0.77017107006009       -0.08308623974419
H            8.65389635195776        0.13292308246234        0.14162890539570
H            5.47737409400884        2.76956859718978        0.40913490922369
H            1.26843458940241        2.46270874119180        0.44217928891601
H           -5.45102363218261        0.32717810793902        0.12370775430318
H           -7.41473840786657       -1.11649957790597        0.26111053810803
H           -7.16003063497208       -3.57056568614338        0.36407359752799
H           -4.90021607739145       -4.56760651793392        0.32249866995502
H           -2.91925345143082       -3.12600631898096        0.17743722172542
H           -2.58472711940803        4.50112305992485       -0.45786772897087
H           -0.33669588816987        3.30539237793616       -0.39584869050220
38
 energy: -72.520720334898 gnorm: 0.002450805239 xtb: 6.5.1 (fef0646)
C            7.62841219364322        0.43719806212655        0.15531065994976
N            7.27451807148039        1.66532575626660        0.30274275591516
C            5.93865521016843        1.79646657576721        0.30159352227034
C            5.22876176151251        0.62592965114380        0.14706561398806
S            6.33052770029505       -0.70260087601728       -0.00497613825521
C            3.80259275139090        0.48404051460160        0.11417558832573
N            3.06827177654606        1.56977397912158        0.28620781917543
C            1.74527203364640        1.52002885421032        0.25701421240746
C            0.97250909683265        0.38113908380760        0.03217084561150
C           -0.45549423285452        0.35370116287186       -0.01160872858765
S           -1.26864831559966       -1.17946215001726        0.09440183240312
C           -2.85412031474404       -0.45653576430624        0.06018103783520
C           -4.03162415283222       -1.29177843856068        0.14095698068587
C           -5.31861699023016       -0.74876430354518        0.16673844933948
C           -6.42725738464647       -1.56773300208108        0.24407509602924
C           -6.27989418157946       -2.94404256083659        0.29862303921639
C           -5.00929187736594       -3.49772254988055        0.27586933186050
C           -3.89871015346831       -2.68350268938207        0.19763193550138
C           -2.72775965516520        0.91027427322111       -0.05743126039763
Se          -3.95554051078747        2.33122149954721       -0.18945479584116
C           -2.46007750084576        3.44459816804598       -0.34588309962343
C           -1.27927663249822        2.79806524748771       -0.28693489252898
C           -1.38164607708093        1.38518724494453       -0.10822434420401
C            1.72831413277485       -0.81152193350746       -0.12020956493607
N            1.27565372788372       -2.04895910552460       -0.30366469843024
S            2.53051854203731       -3.05098851577747       -0.41295913685252
N            3.70626813236324       -1.96984291656991       -0.23678864067468
C            3.16129357414310       -0.76590328333877       -0.08154026968547
H            8.65046101018909        0.11509973385406        0.13037021310509
H            5.48559027566380        2.76323610165329        0.41467565130886
H            1.26987836270675        2.46774954702561        0.45485093276797
H           -5.45508987682032        0.32436371138942        0.13062467360035
H           -7.41401059173419       -1.12936744310870        0.26274584614497
H           -7.14920067709678       -3.58136419278228        0.35896578137979
H           -4.88515980069810       -4.56947208447737        0.31890743868153
H           -2.91029073753493       -3.11893179811095        0.17779129078196
H           -2.59259086647190        4.50398180951002       -0.47693685353134
H           -0.34087864612394        3.31147452422896       -0.39592620834093
38
 energy: -72.520758873376 gnorm: 0.002635385558 xtb: 6.5.1 (fef0646)
C            7.62641935680402        0.42175889707318        0.14823912736422
N            7.28083478046341        1.65179696304172        0.30023621900276
C            5.94605147555263        1.79146563302817        0.30446032226644
C            5.22843156238265        0.62526228145661        0.14952069608151
S            6.32137340297796       -0.70960077654701       -0.00998875081450
C            3.80152648989059        0.48979690001811        0.11911344122549
N            3.06799593094001        1.57454698765404        0.29486509424260
C            1.74459052110285        1.52520388671110        0.26626068704217
C            0.97052227813448        0.38777774195322        0.03979025187280
C           -0.45739210963807        0.36075583393962       -0.00372459251087
S           -1.26848653314684       -1.17372501267756        0.10547469235014
C           -2.85488963309806       -0.45347623606887        0.06362035926653
C           -4.02997847228799       -1.29163870823550        0.14311291998135
C           -5.31816811650631       -0.75148926055452        0.16995830390537
C           -6.42490967695757       -1.57303442864104        0.24508382001923
C           -6.27464761432891       -2.94921629594667        0.29663024844952
C           -5.00270023426655       -3.49989798260925        0.27365319646029
C           -3.89403395663784       -2.68311449851967        0.19745357132030
C           -2.73023312683984        0.91314736322137       -0.05850882708883
Se          -3.95955825586976        2.33061590877711       -0.20182917007720
C           -2.46644799096894        3.44584857863211       -0.35929245890539
C           -1.28408993891415        2.80221430079415       -0.29058662776509
C           -1.38465345088648        1.39057163151272       -0.10627612512605
C            1.72528344686381       -0.80543894536943       -0.11667358678350
N            1.27339462970439       -2.04165156132128       -0.30441880641154
S            2.52914496662948       -3.04417488983110       -0.41900452016490
N            3.70423931676964       -1.96142786611919       -0.23991620104717
C            3.15864199782129       -0.75938840487667       -0.07957016996743
H            8.64657356255175        0.09387516000832        0.11861417261868
H            5.49885171097402        2.76039856713164        0.42173351822671
H            1.27017154603890        2.47347975737161        0.46561764331056
H           -5.45743861398683        0.32152921699625        0.13693325027836
H           -7.41271971078703       -1.13731583405384        0.26456069147864