38
 energy: -72.520825261283 gnorm: 0.000744672113 xtb: 6.5.1 (fef0646)
C            7.62069695467114        0.37691356228367        0.12356222837580
N            7.30332528867890        1.61156044270967        0.30018009801628
C            5.97142771469259        1.78016288798971        0.32141367461841
C            5.22606412914440        0.63372321508044        0.15482728267874
S            6.29034519175637       -0.72176561924271       -0.03854267417891
C            3.79866127541591        0.51151210273548        0.13286123508745
N            3.06444434210559        1.59529839791762        0.31989272151695
C            1.74074012817889        1.54582338883545        0.29454912381536
C            0.96706796516054        0.40813138213215        0.06246556376446
C           -0.46041809203557        0.37522599724546        0.01833218295547
S           -1.26479470409570       -1.16182428989682        0.13971027215070
C           -2.85431588082100       -0.45124644918642        0.07784060471305
C           -4.02532850880847       -1.29498096121826        0.15239329060441
C           -5.31521255536653       -0.75932724829061        0.18458165210364
C           -6.42001546867847       -1.58440453465777        0.25211211345589
C           -6.26572190653342       -2.96066400822212        0.29117374046049
C           -4.99199180794122       -3.50670805866718        0.26304509700977
C           -3.88523324897976       -2.68643980388032        0.19413443569149
C           -2.73656174144719        0.91434613788095       -0.05907610403855
Se          -3.97112421199616        2.32217157263874       -0.23757530347766
C           -2.48267088872642        3.44325926415928       -0.39969185627125
C           -1.29725878831259        2.80744180795267       -0.30831338760497
C           -1.39268259578991        1.39851493180083       -0.10246156451845
C            1.72215163279518       -0.78263466673051       -0.10478037124156
N            1.27051610179305       -2.01867177803512       -0.30229462480044
S            2.52524761686835       -3.01723597032817       -0.43264389687663
N            3.70046971215422       -1.93681734623599       -0.24838596485380
C            3.15455774898786       -0.73589143325346       -0.07386350541817
H            8.63197653185542        0.02498200411750        0.07615750676595
H            5.55130310876743        2.75849822541298        0.46032065019492
H            1.26713460165571        2.49295054702864        0.50153785661329
H           -5.45876628209419        0.31324559743753        0.16348754860996
H           -7.40840217654366       -1.15010978932826        0.27541568276837
H           -7.13173078706168       -3.60301346745734        0.34376871676283
H           -4.86241979259613       -4.57842266278376        0.29394264117676
H           -2.89507041688665       -3.11787813075274        0.16881156651082
H           -2.62288682660799        4.49804776079500       -0.55575162985367
H           -0.36120418626040        3.32658888501459       -0.41198468689288
