      -----------------------------------------------------------      
     |                   =====================                   |     
     |                           x T B                           |     
     |                   =====================                   |     
     |                         S. Grimme                         |     
     |          Mulliken Center for Theoretical Chemistry        |     
     |                    University of Bonn                     |     
      -----------------------------------------------------------      

   * xtb version 6.7.0 (08769fc) compiled by 'albert@albert-system' on 2024-03-04

   xtb is free software: you can redistribute it and/or modify it under
   the terms of the GNU Lesser General Public License as published by
   the Free Software Foundation, either version 3 of the License, or
   (at your option) any later version.
   
   xtb is distributed in the hope that it will be useful,
   but WITHOUT ANY WARRANTY; without even the implied warranty of
   MERCHANTABILITY or FITNESS FOR A PARTICULAR PURPOSE.  See the
   GNU Lesser General Public License for more details.
   
   Cite this work as:
   * C. Bannwarth, E. Caldeweyher, S. Ehlert, A. Hansen, P. Pracht,
     J. Seibert, S. Spicher, S. Grimme, WIREs Comput. Mol. Sci., 2020, 11,
     e01493. DOI: 10.1002/wcms.1493
   
   for GFN2-xTB:
   * C. Bannwarth, S. Ehlert and S. Grimme., J. Chem. Theory Comput., 2019,
     15, 1652-1671. DOI: 10.1021/acs.jctc.8b01176
   for GFN1-xTB:
   * S. Grimme, C. Bannwarth, P. Shushkov, J. Chem. Theory Comput., 2017,
     13, 1989-2009. DOI: 10.1021/acs.jctc.7b00118
   for GFN0-xTB:
   * P. Pracht, E. Caldeweyher, S. Ehlert, S. Grimme, ChemRxiv, 2019, preprint.
     DOI: 10.26434/chemrxiv.8326202.v1
   for GFN-FF:
   * S. Spicher and S. Grimme, Angew. Chem. Int. Ed., 2020, 59, 15665-15673.
     DOI: 10.1002/anie.202004239
   
   for ALPB and GBSA implicit solvation:
   * S. Ehlert, M. Stahn, S. Spicher, S. Grimme, J. Chem. Theory Comput.,
     2021, 17, 4250-4261. DOI: 10.1021/acs.jctc.1c00471
   
   for ddCOSMO and CPCM-X implicit solvation:
   * M. Stahn, S. Ehlert, S. Grimme, J. Phys. Chem. A,
     2023, XX, XXXX-XXXX. DOI: 10.1021/acs.jpca.3c04382
   
   for DFT-D4:
   * E. Caldeweyher, C. Bannwarth and S. Grimme, J. Chem. Phys., 2017,
     147, 034112. DOI: 10.1063/1.4993215
   * E. Caldeweyher, S. Ehlert, A. Hansen, H. Neugebauer, S. Spicher,
     C. Bannwarth and S. Grimme, J. Chem. Phys., 2019, 150, 154122.
     DOI: 10.1063/1.5090222
   * E. Caldeweyher, J.-M. Mewes, S. Ehlert and S. Grimme, Phys. Chem. Chem. Phys.
     2020, 22, 8499-8512. DOI: 10.1039/D0CP00502A
   
   for sTDA-xTB:
   * S. Grimme and C. Bannwarth, J. Chem. Phys., 2016, 145, 054103.
     DOI: 10.1063/1.4959605
   
   in the mass-spec context:
   * V. Asgeirsson, C. Bauer and S. Grimme, Chem. Sci., 2017, 8, 4879.
     DOI: 10.1039/c7sc00601b
   * J. Koopman and S. Grimme, ACS Omega 2019, 4, 12, 15120-15133.
     DOI: 10.1021/acsomega.9b02011
   
   for metadynamics refer to:
   * S. Grimme, J. Chem. Theory Comput., 2019, 155, 2847-2862
     DOI: 10.1021/acs.jctc.9b00143
   
   for SPH calculations refer to:
   * S. Spicher and S. Grimme, J. Chem. Theory Comput., 2021, 17, 1701-1714
     DOI: 10.1021/acs.jctc.0c01306
   
   for ONIOM refer to:
   * C. Plett, A. Katbashev, S. Ehlert, S. Grimme, M. Bursch,
     Phys. Chem. Chem. Phys., 2023, 25, 17860-17868. DOI: 10.1039/D3CP02178E
   
   for DIPRO refer to:
   * J. Kohn, N. Gildemeister, S. Grimme, D. Fazzi, A. Hansen,
     J. Chem. Phys., 2023, just accepted.
   
   for PTB refer to:
   * S. Grimme, M. Mueller, A. Hansen, J. Chem. Phys., 2023, 158, 124111.
     DOI: 10.1063/5.0137838
   
   with help from (in alphabetical order)
   P. Atkinson, C. Bannwarth, F. Bohle, G. Brandenburg, E. Caldeweyher
   M. Checinski, S. Dohm, S. Ehlert, S. Ehrlich, I. Gerasimov, C. Hölzer
   A. Katbashev, J. Kohn, J. Koopman, C. Lavigne, S. Lehtola, F. März, M. Müller,
   F. Musil, H. Neugebauer, J. Pisarek, C. Plett, P. Pracht, F. Pultar,
   J. Seibert, P. Shushkov, S. Spicher, M. Stahn, M. Steiner, T. Strunk,
   J. Stückrath, T. Rose, and J. Unsleber
   
 * started run on 2024/08/07 at 20:11:19.615     
   ID    Z sym.   atoms
    1    7 N      1
    2    6 C      2-4, 6
    3    8 O      5, 7
    4    1 H      8-12

           -------------------------------------------------
          |                Calculation Setup                |
           -------------------------------------------------

          program call               : /home/mvotokps/xtb-dist/bin/xtb crest_best.xyz --gfn 2 --alpb toluene --opt vtight -c 0 --iterations 4000
          coordinate file            : crest_best.xyz
          omp threads                :                     8


           -------------------------------------------------
          |                 G F N 2 - x T B                 |
           -------------------------------------------------

        Reference                      10.1021/acs.jctc.8b01176
      * Hamiltonian:
        H0-scaling (s, p, d)           1.850000    2.230000    2.230000
        zeta-weighting                 0.500000
      * Dispersion:
        s8                             2.700000
        a1                             0.520000
        a2                             5.000000
        s9                             5.000000
      * Repulsion:
        kExp                           1.500000    1.000000
        rExp                           1.000000
      * Coulomb:
        alpha                          2.000000
        third order                    shell-resolved
        anisotropic                    true
        a3                             3.000000
        a5                             4.000000
        cn-shift                       1.200000
        cn-exp                         4.000000
        max-rad                        5.000000

      * Solvation model:               ALPB
        Solvent                        toluene
        Parameter file                 internal GFN2-xTB/ALPB
        Dielectric constant                7.0000E+00
        Reference state                gsolv [1 M gas/solution]
        Free energy shift                  2.2081E-03 Eh       1.3856E+00 kcal/mol
        Temperature                        2.9815E+02 K
        Density                            8.6700E-01 kg/L
        Solvent mass                       7.8110E+01 g/mol
        Interaction kernel             P16
        Born radius scaling (c1)           1.7172E+00
        Born radii integrator          GBOBC
        Born offset                        0.0000E+00 a0       0.0000E+00 AA
        H-bond correction              false
        Ion screening                  false
        Surface tension                    1.0000E-05 Eh       1.5569E+01 dyn/cm
        Grid points                               230 per atom

          ...................................................
          :                      SETUP                      :
          :.................................................:
          :  # basis functions                  33          :
          :  # atomic orbitals                  33          :
          :  # shells                           19          :
          :  # electrons                        38          :
          :  max. iterations                  4000          :
          :  Hamiltonian                  GFN2-xTB          :
          :  restarted?                      false          :
          :  GBSA solvation                   true          :
          :  PC potential                    false          :
          :  electronic temp.          300.0000000     K    :
          :  accuracy                    1.0000000          :
          :  -> integral cutoff          0.2500000E+02      :
          :  -> integral neglect         0.1000000E-07      :
          :  -> SCF convergence          0.1000000E-05 Eh   :
          :  -> wf. convergence          0.1000000E-03 e    :
          :  Broyden damping             0.4000000          :
          :  net charge                          0          :
          :  unpaired electrons                  0          :
          ...................................................

 iter      E             dE          RMSdq      gap      omega  full diag
   1    -22.2883917 -0.222884E+02  0.516E+00    3.40       0.0  T
   2    -22.3220696 -0.336779E-01  0.265E+00    2.66       1.0  T
   3    -22.3221712 -0.101600E-03  0.148E+00    2.80       1.0  T
   4    -22.3275799 -0.540864E-02  0.189E-01    2.47       1.0  T
   5    -22.3276877 -0.107826E-03  0.845E-02    2.47       1.0  T
   6    -22.3277166 -0.289035E-04  0.471E-02    2.49       1.0  T
   7    -22.3277201 -0.347941E-05  0.104E-02    2.50       2.8  T
   8    -22.3277203 -0.239313E-06  0.409E-03    2.49       7.1  T
   9    -22.3277203 -0.432427E-07  0.140E-03    2.49      20.7  T
  10    -22.3277203 -0.366219E-08  0.404E-04    2.49      71.4  T
  11    -22.3277203 -0.570090E-09  0.120E-04    2.49     240.9  T

   *** convergence criteria satisfied after 11 iterations ***

         #    Occupation            Energy/Eh            Energy/eV
      -------------------------------------------------------------
         1        2.0000           -0.7539415             -20.5158
       ...           ...                  ...                  ...
        13        2.0000           -0.5270634             -14.3421
        14        2.0000           -0.5080513             -13.8248
        15        2.0000           -0.5045798             -13.7303
        16        2.0000           -0.4841395             -13.1741
        17        2.0000           -0.4492659             -12.2251
        18        2.0000           -0.4269181             -11.6170
        19        2.0000           -0.3899966             -10.6123 (HOMO)
        20                         -0.2983913              -8.1196 (LUMO)
        21                         -0.2419361              -6.5834
        22                         -0.0647614              -1.7622
        23                         -0.0091499              -0.2490
        24                          0.0194730               0.5299
       ...                                ...                  ...
        33                          0.6013669              16.3640
      -------------------------------------------------------------
                  HL-Gap            0.0916053 Eh            2.4927 eV
             Fermi-level           -0.3441940 Eh           -9.3660 eV

 SCC (total)                   0 d,  0 h,  0 min,  0.120 sec
 SCC setup                      ...        0 min,  0.000 sec (  0.341%)
 Dispersion                     ...        0 min,  0.000 sec (  0.281%)
 classical contributions        ...        0 min,  0.000 sec (  0.120%)
 integral evaluation            ...        0 min,  0.001 sec (  0.417%)
 iterations                     ...        0 min,  0.117 sec ( 97.329%)
 molecular gradient             ...        0 min,  0.002 sec (  1.368%)
 printout                       ...        0 min,  0.000 sec (  0.113%)

         :::::::::::::::::::::::::::::::::::::::::::::::::::::
         ::                     SUMMARY                     ::
         :::::::::::::::::::::::::::::::::::::::::::::::::::::
         :: total energy             -22.098324374811 Eh    ::
         :: total w/o Gsasa/hb       -22.090357736126 Eh    ::
         :: gradient norm              0.085735360397 Eh/a0 ::
         :: HOMO-LUMO gap              2.492706992878 eV    ::
         ::.................................................::
         :: SCC energy               -22.327714705388 Eh    ::
         :: -> isotropic ES            0.050848626535 Eh    ::
         :: -> anisotropic ES          0.002930344342 Eh    ::
         :: -> anisotropic XC          0.009480972099 Eh    ::
         :: -> dispersion             -0.007066862412 Eh    ::
         :: -> Gsolv                  -0.010147186189 Eh    ::
         ::    -> Gelec               -0.002180547504 Eh    ::
         ::    -> Gsasa               -0.010174781823 Eh    ::
         ::    -> Ghb                  0.000000000000 Eh    ::
         ::    -> Gshift               0.002208143139 Eh    ::
         :: repulsion energy           0.229390330577 Eh    ::
         :: add. restraining           0.000000000000 Eh    ::
         :: total charge              -0.000000000000 e     ::
         :::::::::::::::::::::::::::::::::::::::::::::::::::::

      ----------------------------------------------------------- 
     |                   =====================                   |
     |                        A N C O P T                        |
     |                   =====================                   |
     |               Approximate Normal Coordinate               |
     |                Rational Function Optimizer                |
      ----------------------------------------------------------- 
      ----------------------------------------------------------- 
     |                   =====================                   |
     |                        A N C O P T                        |
     |                   =====================                   |
     |               Approximate Normal Coordinate               |
     |                Rational Function Optimizer                |
      ----------------------------------------------------------- 

          ...................................................
          :                      SETUP                      :
          :.................................................:
          :   optimization level         verytight          :
          :   max. optcycles                   240          :
          :   ANC micro-cycles                  20          :
          :   degrees of freedom                30          :
          :.................................................:
          :   RF solver                   davidson          :
          :   write xtbopt.log                true          :
          :   linear?                        false          :
          :   energy convergence         0.1000000E-06 Eh   :
          :   grad. convergence          0.2000000E-03 Eh/α :
          :   maxmium RF displ.          1.0000000          :
          :   Hlow (freq-cutoff)         0.1000000E-01      :
          :   Hmax (freq-cutoff)         5.0000000          :
          :   S6 in model hess.         20.0000000          :
          ...................................................

generating ANC from model Hessian ...
Using Lindh-Hessian (1995)
 Shifting diagonal of input Hessian by   4.037109928070988E-003
 Lowest  eigenvalues of input Hessian
    0.000000    0.000000    0.000000    0.000000    0.000000    0.000000
    0.010000    0.015463    0.019419    0.033004    0.041851    0.051403
    0.055841    0.071651    0.088072    0.094838    0.098591    0.118504
 Highest eigenvalues
    1.220264    1.291611    1.438422    1.569160    2.225882    2.237659
 

........................................................................
.............................. CYCLE    1 ..............................
........................................................................

 iter      E             dE          RMSdq      gap      omega  full diag
   1    -22.3277203 -0.223277E+02  0.454E-05    2.49       0.0  T
   2    -22.3277203 -0.918732E-11  0.211E-05    2.49    1365.9  T
   3    -22.3277203 -0.247269E-11  0.125E-05    2.49    2312.1  T
     SCC iter.                  ...        0 min,  0.100 sec
     gradient                   ...        0 min,  0.001 sec
 * total energy  :   -22.0983244 Eh     change       -0.2769340E-10 Eh
   gradient norm :     0.0857358 Eh/α   predicted     0.0000000E+00 (-100.00%)
   displ. norm   :     0.2547544 α      lambda       -0.1133515E-01
   maximum displ.:     0.1290474 α      in ANC's #3, #5, #7, ...

........................................................................
.............................. CYCLE    2 ..............................
........................................................................

 iter      E             dE          RMSdq      gap      omega  full diag
   1    -22.3378893 -0.223379E+02  0.364E-01    2.47       0.0  T
   2    -22.3379678 -0.785067E-04  0.214E-01    2.53       1.0  T
   3    -22.3379626  0.520964E-05  0.569E-02    2.57       1.0  T
   4    -22.3379776 -0.150633E-04  0.130E-02    2.57       2.2  T
   5    -22.3379783 -0.658747E-06  0.738E-03    2.57       3.9  T
   6    -22.3379784 -0.133150E-06  0.295E-03    2.56       9.8  T
   7    -22.3379785 -0.107113E-07  0.106E-03    2.56      27.3  T
   8    -22.3379785 -0.360609E-08  0.326E-04    2.56      88.5  T
   9    -22.3379785 -0.928395E-10  0.143E-04    2.56     202.3  T
     SCC iter.                  ...        0 min,  0.100 sec
     gradient                   ...        0 min,  0.001 sec
 * total energy  :   -22.1062582 Eh     change       -0.7933863E-02 Eh
   gradient norm :     0.0344456 Eh/α   predicted    -0.6035404E-02 ( -23.93%)
   displ. norm   :     0.2972735 α      lambda       -0.4914126E-02
   maximum displ.:     0.1646659 α      in ANC's #3, #5, #2, ...

........................................................................
.............................. CYCLE    3 ..............................
........................................................................

 iter      E             dE          RMSdq      gap      omega  full diag
   1    -22.3398808 -0.223399E+02  0.392E-01    2.65       0.0  T
   2    -22.3398969 -0.160544E-04  0.230E-01    2.66       1.0  T
   3    -22.3398994 -0.246952E-05  0.197E-02    2.67       1.5  T
   4    -22.3399014 -0.204137E-05  0.909E-03    2.66       3.2  T
   5    -22.3399015 -0.632500E-07  0.381E-03    2.66       7.6  T
   6    -22.3399015 -0.166950E-07  0.145E-03    2.66      19.9  T
   7    -22.3399015 -0.535817E-08  0.631E-04    2.66      45.8  T
   8    -22.3399015 -0.603212E-09  0.252E-04    2.66     114.3  T
     SCC iter.                  ...        0 min,  0.119 sec
     gradient                   ...        0 min,  0.005 sec
 * total energy  :   -22.1088173 Eh     change       -0.2559037E-02 Eh
   gradient norm :     0.0188388 Eh/α   predicted    -0.2674188E-02 (   4.50%)
   displ. norm   :     0.1727843 α      lambda       -0.1100479E-02
   maximum displ.:     0.1211327 α      in ANC's #3, #1, #5, ...

........................................................................
.............................. CYCLE    4 ..............................
........................................................................

 iter      E             dE          RMSdq      gap      omega  full diag
   1    -22.3396564 -0.223397E+02  0.249E-01    2.78       0.0  T
   2    -22.3396698 -0.133627E-04  0.149E-01    2.77       1.0  T
   3    -22.3396640  0.577526E-05  0.349E-02    2.75       1.0  T
   4    -22.3396728 -0.872581E-05  0.763E-03    2.76       3.8  T
   5    -22.3396729 -0.155225E-06  0.402E-03    2.76       7.2  T
   6    -22.3396729 -0.287257E-07  0.136E-03    2.76      21.3  T
   7    -22.3396729 -0.237444E-08  0.340E-04    2.76      84.9  T
   8    -22.3396729 -0.345629E-09  0.153E-04    2.76     188.5  T
     SCC iter.                  ...        0 min,  0.114 sec
     gradient                   ...        0 min,  0.003 sec
 * total energy  :   -22.1090269 Eh     change       -0.2096395E-03 Eh
   gradient norm :     0.0142882 Eh/α   predicted    -0.5666683E-03 ( 170.31%)
   displ. norm   :     0.0555371 α      lambda       -0.4428049E-03
   maximum displ.:     0.0291237 α      in ANC's #2, #1, #4, ...

........................................................................
.............................. CYCLE    5 ..............................
........................................................................

 iter      E             dE          RMSdq      gap      omega  full diag
   1    -22.3407785 -0.223408E+02  0.102E-01    2.75       0.0  T
   2    -22.3407809 -0.239762E-05  0.613E-02    2.75       1.0  T
   3    -22.3407800  0.826204E-06  0.138E-02    2.75       2.1  T
   4    -22.3407812 -0.116033E-05  0.345E-03    2.75       8.4  T
   5    -22.3407813 -0.638338E-07  0.147E-03    2.75      19.6  T
   6    -22.3407813 -0.198534E-08  0.463E-04    2.75      62.3  T
   7    -22.3407813 -0.465395E-09  0.193E-04    2.75     149.5  T
     SCC iter.                  ...        0 min,  0.144 sec
     gradient                   ...        0 min,  0.014 sec
 * total energy  :   -22.1092871 Eh     change       -0.2601797E-03 Eh
   gradient norm :     0.0053944 Eh/α   predicted    -0.2220862E-03 ( -14.64%)
   displ. norm   :     0.0394058 α      lambda       -0.6928448E-04
   maximum displ.:     0.0360853 α      in ANC's #3, #12, #9, ...

........................................................................
.............................. CYCLE    6 ..............................
........................................................................

 iter      E             dE          RMSdq      gap      omega  full diag
   1    -22.3411904 -0.223412E+02  0.472E-02    2.75       0.0  T
   2    -22.3411920 -0.162875E-05  0.281E-02    2.76       1.0  T
   3    -22.3411917  0.318091E-06  0.112E-02    2.75       2.6  T
   4    -22.3411922 -0.527272E-06  0.220E-03    2.76      13.1  T
   5    -22.3411922 -0.329750E-07  0.541E-04    2.76      53.4  T
   6    -22.3411922 -0.445620E-09  0.240E-04    2.76     120.4  T
     SCC iter.                  ...        0 min,  0.265 sec
     gradient                   ...        0 min,  0.025 sec
 * total energy  :   -22.1093377 Eh     change       -0.5056759E-04 Eh
   gradient norm :     0.0026729 Eh/α   predicted    -0.3469683E-04 ( -31.39%)
   displ. norm   :     0.0656526 α      lambda       -0.5404770E-04
   maximum displ.:     0.0598926 α      in ANC's #3, #2, #1, ...

........................................................................
.............................. CYCLE    7 ..............................
........................................................................

 iter      E             dE          RMSdq      gap      omega  full diag
   1    -22.3416223 -0.223416E+02  0.933E-02    2.76       0.0  T
   2    -22.3416244 -0.209892E-05  0.552E-02    2.76       1.0  T
   3    -22.3416236  0.841521E-06  0.126E-02    2.76       2.3  T
   4    -22.3416247 -0.109863E-05  0.277E-03    2.76      10.4  T
   5    -22.3416247 -0.502922E-07  0.957E-04    2.76      30.2  T
   6    -22.3416247 -0.899789E-09  0.436E-04    2.76      66.1  T
     SCC iter.                  ...        0 min,  0.124 sec
     gradient                   ...        0 min,  0.004 sec
 * total energy  :   -22.1093747 Eh     change       -0.3707020E-04 Eh
   gradient norm :     0.0023961 Eh/α   predicted    -0.2713978E-04 ( -26.79%)
   displ. norm   :     0.0725792 α      lambda       -0.3410182E-04
   maximum displ.:     0.0587177 α      in ANC's #3, #2, #1, ...

........................................................................
.............................. CYCLE    8 ..............................
........................................................................

 iter      E             dE          RMSdq      gap      omega  full diag
   1    -22.3418513 -0.223419E+02  0.119E-01    2.76       0.0  T
   2    -22.3418522 -0.901567E-06  0.700E-02    2.77       1.0  T
   3    -22.3418521  0.101686E-06  0.591E-03    2.77       4.9  T
   4    -22.3418524 -0.247988E-06  0.232E-03    2.77      12.4  T
   5    -22.3418524 -0.247848E-07  0.108E-03    2.77      26.8  T
   6    -22.3418524 -0.106163E-08  0.364E-04    2.77      79.4  T
   7    -22.3418524 -0.318462E-09  0.147E-04    2.77     196.8  T
     SCC iter.                  ...        0 min,  0.103 sec
     gradient                   ...        0 min,  0.001 sec
 * total energy  :   -22.1094014 Eh     change       -0.2666391E-04 Eh
   gradient norm :     0.0031085 Eh/α   predicted    -0.1714035E-04 ( -35.72%)
   displ. norm   :     0.1331193 α      lambda       -0.5372511E-04
   maximum displ.:     0.0944062 α      in ANC's #3, #2, #1, ...

........................................................................
.............................. CYCLE    9 ..............................
........................................................................

 iter      E             dE          RMSdq      gap      omega  full diag
   1    -22.3418781 -0.223419E+02  0.232E-01    2.76       0.0  T
   2    -22.3418796 -0.147200E-05  0.137E-01    2.77       1.0  T
   3    -22.3418800 -0.417661E-06  0.490E-03    2.77       5.9  T
   4    -22.3418801 -0.413839E-07  0.293E-03    2.77       9.9  T
   5    -22.3418801 -0.732676E-08  0.143E-03    2.77      20.1  T
   6    -22.3418801 -0.554340E-08  0.462E-04    2.77      62.4  T
   7    -22.3418801 -0.463722E-09  0.207E-04    2.77     139.3  T
     SCC iter.                  ...        0 min,  0.112 sec
     gradient                   ...        0 min,  0.001 sec
 * total energy  :   -22.1094390 Eh     change       -0.3757130E-04 Eh
   gradient norm :     0.0042611 Eh/α   predicted    -0.2733748E-04 ( -27.24%)
   displ. norm   :     0.1262307 α      lambda       -0.5201582E-04
   maximum displ.:     0.0874083 α      in ANC's #2, #3, #1, ...

........................................................................
.............................. CYCLE   10 ..............................
........................................................................

 iter      E             dE          RMSdq      gap      omega  full diag
   1    -22.3420183 -0.223420E+02  0.229E-01    2.76       0.0  T
   2    -22.3420191 -0.872203E-06  0.135E-01    2.77       1.0  T
   3    -22.3420192 -0.123287E-06  0.724E-03    2.77       4.0  T
   4    -22.3420196 -0.326282E-06  0.313E-03    2.77       9.2  T
   5    -22.3420196 -0.970931E-08  0.127E-03    2.77      22.7  T
   6    -22.3420196 -0.215838E-08  0.404E-04    2.77      71.5  T
   7    -22.3420196 -0.302386E-09  0.185E-04    2.77     156.3  T
     SCC iter.                  ...        0 min,  0.112 sec
     gradient                   ...        0 min,  0.001 sec
 * total energy  :   -22.1094786 Eh     change       -0.3962772E-04 Eh
   gradient norm :     0.0046153 Eh/α   predicted    -0.2642203E-04 ( -33.32%)
   displ. norm   :     0.1584268 α      lambda       -0.8040812E-04
   maximum displ.:     0.1182670 α      in ANC's #2, #3, #4, ...

........................................................................
.............................. CYCLE   11 ..............................
........................................................................

 iter      E             dE          RMSdq      gap      omega  full diag
   1    -22.3419533 -0.223420E+02  0.291E-01    2.76       0.0  T
   2    -22.3419551 -0.176140E-05  0.172E-01    2.76       1.0  T
   3    -22.3419544  0.621234E-06  0.134E-02    2.77       2.2  T
   4    -22.3419559 -0.144334E-05  0.396E-03    2.77       7.3  T
   5    -22.3419559 -0.142277E-07  0.183E-03    2.77      15.8  T
   6    -22.3419559 -0.601145E-08  0.588E-04    2.77      49.1  T
   7    -22.3419559 -0.698112E-09  0.242E-04    2.77     119.2  T
     SCC iter.                  ...        0 min,  0.100 sec
     gradient                   ...        0 min,  0.002 sec
 * total energy  :   -22.1095360 Eh     change       -0.5744040E-04 Eh
   gradient norm :     0.0049369 Eh/α   predicted    -0.4121387E-04 ( -28.25%)
   displ. norm   :     0.1105878 α      lambda       -0.7811451E-04
   maximum displ.:     0.0860832 α      in ANC's #2, #3, #4, ...

........................................................................
.............................. CYCLE   12 ..............................
........................................................................

 iter      E             dE          RMSdq      gap      omega  full diag
   1    -22.3424825 -0.223425E+02  0.202E-01    2.78       0.0  T
   2    -22.3424837 -0.125938E-05  0.119E-01    2.78       1.0  T
   3    -22.3424832  0.550689E-06  0.108E-02    2.78       2.7  T
   4    -22.3424841 -0.971591E-06  0.291E-03    2.78       9.9  T
   5    -22.3424842 -0.187562E-07  0.151E-03    2.78      19.1  T
   6    -22.3424842 -0.232782E-08  0.422E-04    2.78      68.4  T
   7    -22.3424842 -0.461593E-09  0.199E-04    2.78     144.9  T
     SCC iter.                  ...        0 min,  0.101 sec
     gradient                   ...        0 min,  0.001 sec
 * total energy  :   -22.1095883 Eh     change       -0.5222492E-04 Eh
   gradient norm :     0.0038369 Eh/α   predicted    -0.3953510E-04 ( -24.30%)
   displ. norm   :     0.3781404 α      lambda       -0.1404651E-03
   maximum displ.:     0.2684768 α      in ANC's #2, #3, #4, ...

........................................................................
.............................. CYCLE   13 ..............................
........................................................................

 iter      E             dE          RMSdq      gap      omega  full diag
   1    -22.3358026 -0.223358E+02  0.706E-01    2.63       0.0  T
   2    -22.3358289 -0.263584E-04  0.415E-01    2.66       1.0  T
   3    -22.3358284  0.520718E-06  0.293E-02    2.70       1.0  T
   4    -22.3358342 -0.572315E-05  0.107E-02    2.69       2.7  T
   5    -22.3358344 -0.285172E-06  0.565E-03    2.69       5.1  T
   6    -22.3358345 -0.816941E-07  0.269E-03    2.69      10.7  T
   7    -22.3358345 -0.114175E-07  0.576E-04    2.69      50.2  T
   8    -22.3358345 -0.870696E-09  0.277E-04    2.69     104.3  T
     SCC iter.                  ...        0 min,  0.110 sec
     gradient                   ...        0 min,  0.001 sec
 * total energy  :   -22.1092645 Eh     change        0.3237134E-03 Eh
   gradient norm :     0.0297363 Eh/α   predicted    -0.8028141E-04 (-124.80%)
   displ. norm   :     0.2479017 α      lambda       -0.1064853E-02
   maximum displ.:     0.1734932 α      in ANC's #2, #3, #4, ...

........................................................................
.............................. CYCLE   14 ..............................
........................................................................

 iter      E             dE          RMSdq      gap      omega  full diag
   1    -22.3424511 -0.223425E+02  0.458E-01    2.85       0.0  T
   2    -22.3424695 -0.184262E-04  0.269E-01    2.82       1.0  T
   3    -22.3424664  0.308034E-05  0.293E-02    2.79       1.0  T
   4    -22.3424726 -0.618979E-05  0.783E-03    2.79       3.7  T
   5    -22.3424728 -0.200281E-06  0.405E-03    2.79       7.1  T
   6    -22.3424729 -0.512336E-07  0.194E-03    2.80      14.9  T
   7    -22.3424729 -0.411364E-08  0.582E-04    2.79      49.6  T
   8    -22.3424729 -0.125497E-08  0.218E-04    2.79     132.6  T
     SCC iter.                  ...        0 min,  0.112 sec
     gradient                   ...        0 min,  0.001 sec
 * total energy  :   -22.1096598 Eh     change       -0.3952766E-03 Eh
   gradient norm :     0.0025309 Eh/α   predicted    -0.5651453E-03 (  42.97%)
   displ. norm   :     0.0501273 α      lambda       -0.3131368E-04
   maximum displ.:     0.0333738 α      in ANC's #3, #2, #19, ...

........................................................................
.............................. CYCLE   15 ..............................
........................................................................

 iter      E             dE          RMSdq      gap      omega  full diag
   1    -22.3422468 -0.223422E+02  0.913E-02    2.79       0.0  T
   2    -22.3422470 -0.251744E-06  0.539E-02    2.79       1.0  T
   3    -22.3422469  0.924150E-07  0.458E-03    2.80       6.3  T
   4    -22.3422471 -0.176497E-06  0.131E-03    2.80      22.0  T
   5    -22.3422471 -0.360360E-08  0.728E-04    2.80      39.7  T
   6    -22.3422471 -0.693188E-09  0.232E-04    2.80     124.5  T
     SCC iter.                  ...        0 min,  0.110 sec
     gradient                   ...        0 min,  0.001 sec
 * total energy  :   -22.1096888 Eh     change       -0.2894892E-04 Eh
   gradient norm :     0.0016286 Eh/α   predicted    -0.1569543E-04 ( -45.78%)
   displ. norm   :     0.5894238 α      lambda       -0.1887253E-03
   maximum displ.:     0.3968230 α      in ANC's #2, #3, #19, ...

........................................................................
.............................. CYCLE   16 ..............................
........................................................................

 iter      E             dE          RMSdq      gap      omega  full diag
   1    -22.3320493 -0.223320E+02  0.109E+00    2.61       0.0  T
   2    -22.3320938 -0.445478E-04  0.640E-01    2.67       1.0  T
   3    -22.3320963 -0.246873E-05  0.355E-02    2.71       1.0  T
   4    -22.3321046 -0.830113E-05  0.164E-02    2.70       1.8  T
   5    -22.3321052 -0.608960E-06  0.870E-03    2.70       3.3  T
   6    -22.3321054 -0.183119E-06  0.349E-03    2.70       8.3  T
   7    -22.3321054 -0.168484E-07  0.902E-04    2.70      32.0  T
   8    -22.3321054 -0.987495E-09  0.376E-04    2.70      76.9  T
     SCC iter.                  ...        0 min,  0.103 sec
     gradient                   ...        0 min,  0.001 sec
 * total energy  :   -22.1088020 Eh     change        0.8867469E-03 Eh
   gradient norm :     0.0405825 Eh/α   predicted    -0.1089314E-03 (-112.28%)
   displ. norm   :     0.2968435 α      lambda       -0.2062140E-02
   maximum displ.:     0.1972628 α      in ANC's #2, #3, #19, ...

........................................................................
.............................. CYCLE   17 ..............................
........................................................................

 iter      E             dE          RMSdq      gap      omega  full diag
   1    -22.3403752 -0.223404E+02  0.546E-01    2.86       0.0  T
   2    -22.3403933 -0.181061E-04  0.322E-01    2.81       1.0  T
   3    -22.3403914  0.188182E-05  0.269E-02    2.79       1.1  T
   4    -22.3403968 -0.537068E-05  0.809E-03    2.79       3.6  T
   5    -22.3403970 -0.176624E-06  0.442E-03    2.80       6.5  T
   6    -22.3403970 -0.410896E-07  0.209E-03    2.80      13.8  T
   7    -22.3403970 -0.462723E-08  0.625E-04    2.79      46.2  T
   8    -22.3403970 -0.143355E-08  0.255E-04    2.79     113.3  T
     SCC iter.                  ...        0 min,  0.101 sec
     gradient                   ...        0 min,  0.001 sec
 * total energy  :   -22.1097587 Eh     change       -0.9566600E-03 Eh
   gradient norm :     0.0079997 Eh/α   predicted    -0.1121924E-02 (  17.28%)
   displ. norm   :     0.0140775 α      lambda       -0.4919924E-04
   maximum displ.:     0.0068646 α      in ANC's #5, #3, #19, ...

........................................................................
.............................. CYCLE   18 ..............................
........................................................................

 iter      E             dE          RMSdq      gap      omega  full diag
   1    -22.3411921 -0.223412E+02  0.157E-02    2.80       0.0  T
   2    -22.3411922 -0.141827E-06  0.947E-03    2.80       3.0  T
   3    -22.3411922  0.316436E-07  0.345E-03    2.80       8.4  T
   4    -22.3411922 -0.548982E-07  0.653E-04    2.80      44.2  T
   5    -22.3411922 -0.259668E-08  0.291E-04    2.80      99.1  T
     SCC iter.                  ...        0 min,  0.121 sec
     gradient                   ...        0 min,  0.002 sec
 * total energy  :   -22.1097943 Eh     change       -0.3560277E-04 Eh
   gradient norm :     0.0052656 Eh/α   predicted    -0.2460434E-04 ( -30.89%)
   displ. norm   :     0.0379816 α      lambda       -0.5453889E-04
   maximum displ.:     0.0255929 α      in ANC's #2, #1, #19, ...

........................................................................
.............................. CYCLE   19 ..............................
........................................................................

 iter      E             dE          RMSdq      gap      omega  full diag
   1    -22.3426119 -0.223426E+02  0.621E-02    2.83       0.0  T
   2    -22.3426129 -0.950968E-06  0.370E-02    2.82       1.0  T
   3    -22.3426127  0.211141E-06  0.728E-03    2.82       4.0  T
   4    -22.3426130 -0.350262E-06  0.175E-03    2.82      16.5  T
   5    -22.3426130 -0.133384E-07  0.828E-04    2.82      34.9  T
   6    -22.3426130 -0.251984E-08  0.373E-04    2.82      77.5  T
     SCC iter.                  ...        0 min,  0.114 sec
     gradient                   ...        0 min,  0.001 sec
 * total energy  :   -22.1098200 Eh     change       -0.2573014E-04 Eh
   gradient norm :     0.0031655 Eh/α   predicted    -0.2730762E-04 (   6.13%)
   displ. norm   :     0.0393821 α      lambda       -0.2498601E-04
   maximum displ.:     0.0224436 α      in ANC's #2, #3, #19, ...

........................................................................
.............................. CYCLE   20 ..............................
........................................................................

 iter      E             dE          RMSdq      gap      omega  full diag
   1    -22.3426997 -0.223427E+02  0.706E-02    2.81       0.0  T
   2    -22.3426999 -0.142525E-06  0.416E-02    2.81       1.0  T
   3    -22.3426998  0.204434E-07  0.324E-03    2.81       8.9  T
   4    -22.3426999 -0.699100E-07  0.108E-03    2.81      26.9  T
   5    -22.3426999 -0.197758E-08  0.443E-04    2.81      65.2  T
   6    -22.3426999 -0.259231E-09  0.215E-04    2.81     134.5  T
     SCC iter.                  ...        0 min,  0.118 sec
     gradient                   ...        0 min,  0.002 sec
 * total energy  :   -22.1098409 Eh     change       -0.2093030E-04 Eh
   gradient norm :     0.0015657 Eh/α   predicted    -0.1251377E-04 ( -40.21%)
   displ. norm   :     0.3261915 α      lambda       -0.9845122E-04
   maximum displ.:     0.2114733 α      in ANC's #2, #3, #19, ...
 * RMSD in coord.:     0.4983722 α      energy gain  -0.1151657E-01 Eh

generating ANC from model Hessian ...
Using Lindh-Hessian (1995)
 Shifting diagonal of input Hessian by   3.649637700696221E-003
 Lowest  eigenvalues of input Hessian
    0.000000    0.000000    0.000000    0.000000    0.000000    0.000000
    0.010000    0.013124    0.018980    0.033447    0.042668    0.053407
    0.055119    0.073941    0.085165    0.096068    0.096687    0.118978
 Highest eigenvalues
    1.208810    1.329397    1.417151    1.670283    2.172885    2.303815
 

........................................................................
.............................. CYCLE   21 ..............................
........................................................................

 iter      E             dE          RMSdq      gap      omega  full diag
   1    -22.3400091 -0.223400E+02  0.598E-01    2.69       0.0  T
   2    -22.3400197 -0.106244E-04  0.352E-01    2.72       1.0  T
   3    -22.3400203 -0.595926E-06  0.213E-02    2.74       1.4  T
   4    -22.3400229 -0.258474E-05  0.870E-03    2.73       3.3  T
   5    -22.3400231 -0.184561E-06  0.430E-03    2.73       6.7  T
   6    -22.3400231 -0.344134E-07  0.193E-03    2.73      15.0  T
   7    -22.3400231 -0.677941E-08  0.415E-04    2.73      69.6  T
   8    -22.3400231 -0.263292E-09  0.190E-04    2.73     151.7  T
     SCC iter.                  ...        0 min,  0.106 sec
     gradient                   ...        0 min,  0.001 sec
 * total energy  :   -22.1098280 Eh     change        0.1298140E-04 Eh
   gradient norm :     0.0185298 Eh/α   predicted     0.0000000E+00 (-100.00%)
   displ. norm   :     0.0472805 α      lambda       -0.2652759E-03
   maximum displ.:     0.0356175 α      in ANC's #2, #3, #1, ...

........................................................................
.............................. CYCLE   22 ..............................
........................................................................

 iter      E             dE          RMSdq      gap      omega  full diag
   1    -22.3426752 -0.223427E+02  0.826E-02    2.82       0.0  T
   2    -22.3426791 -0.395896E-05  0.502E-02    2.80       1.0  T
   3    -22.3426786  0.504327E-06  0.143E-02    2.79       2.0  T
   4    -22.3426796 -0.102505E-05  0.349E-03    2.79       8.3  T
   5    -22.3426797 -0.483661E-07  0.147E-03    2.79      19.6  T
   6    -22.3426797 -0.101033E-07  0.683E-04    2.79      42.3  T
   7    -22.3426797 -0.320590E-09  0.235E-04    2.79     122.6  T
     SCC iter.                  ...        0 min,  0.105 sec
     gradient                   ...        0 min,  0.003 sec
 * total energy  :   -22.1099573 Eh     change       -0.1293045E-03 Eh
   gradient norm :     0.0039567 Eh/α   predicted    -0.1329356E-03 (   2.81%)
   displ. norm   :     0.0305481 α      lambda       -0.8186366E-04
   maximum displ.:     0.0172078 α      in ANC's #9, #3, #12, ...

........................................................................
.............................. CYCLE   23 ..............................
........................................................................

 iter      E             dE          RMSdq      gap      omega  full diag
   1    -22.3436634 -0.223437E+02  0.557E-02    2.83       0.0  T
   2    -22.3436643 -0.863129E-06  0.335E-02    2.83       1.0  T
   3    -22.3436641  0.223457E-06  0.760E-03    2.82       3.8  T
   4    -22.3436644 -0.345307E-06  0.176E-03    2.82      16.4  T
   5    -22.3436644 -0.147011E-07  0.747E-04    2.82      38.6  T
   6    -22.3436644 -0.187940E-08  0.303E-04    2.82      95.2  T
     SCC iter.                  ...        0 min,  0.113 sec
     gradient                   ...        0 min,  0.001 sec
 * total energy  :   -22.1099648 Eh     change       -0.7506123E-05 Eh
   gradient norm :     0.0048973 Eh/α   predicted    -0.4096809E-04 ( 445.80%)
   displ. norm   :     0.0267783 α      lambda       -0.4514223E-04
   maximum displ.:     0.0226462 α      in ANC's #2, #3, #1, ...

........................................................................
.............................. CYCLE   24 ..............................
........................................................................

 iter      E             dE          RMSdq      gap      omega  full diag
   1    -22.3430068 -0.223430E+02  0.492E-02    2.80       0.0  T
   2    -22.3430070 -0.206913E-06  0.292E-02    2.81       1.0  T
   3    -22.3430070  0.119180E-07  0.303E-03    2.81       9.5  T
   4    -22.3430071 -0.596508E-07  0.104E-03    2.81      27.7  T
   5    -22.3430071 -0.149357E-08  0.560E-04    2.81      51.6  T
   6    -22.3430071 -0.511530E-09  0.213E-04    2.81     135.5  T
     SCC iter.                  ...        0 min,  0.113 sec
     gradient                   ...        0 min,  0.002 sec
 * total energy  :   -22.1099934 Eh     change       -0.2866418E-04 Eh
   gradient norm :     0.0012235 Eh/α   predicted    -0.2258718E-04 ( -21.20%)
   displ. norm   :     0.0598391 α      lambda       -0.1736184E-04
   maximum displ.:     0.0472773 α      in ANC's #2, #3, #5, ...

........................................................................
.............................. CYCLE   25 ..............................
........................................................................

 iter      E             dE          RMSdq      gap      omega  full diag
   1    -22.3424329 -0.223424E+02  0.106E-01    2.80       0.0  T
   2    -22.3424331 -0.250457E-06  0.626E-02    2.81       1.0  T
   3    -22.3424331 -0.546368E-08  0.390E-03    2.81       7.4  T
   4    -22.3424332 -0.109434E-06  0.159E-03    2.81      18.1  T
   5    -22.3424332 -0.237659E-08  0.723E-04    2.81      39.9  T
   6    -22.3424333 -0.129602E-08  0.249E-04    2.81     116.0  T
     SCC iter.                  ...        0 min,  0.112 sec
     gradient                   ...        0 min,  0.003 sec
 * total energy  :   -22.1100120 Eh     change       -0.1857194E-04 Eh
   gradient norm :     0.0016582 Eh/α   predicted    -0.8693512E-05 ( -53.19%)
   displ. norm   :     0.1187403 α      lambda       -0.2490522E-04
   maximum displ.:     0.0894279 α      in ANC's #2, #3, #9, ...

........................................................................
.............................. CYCLE   26 ..............................
........................................................................

 iter      E             dE          RMSdq      gap      omega  full diag
   1    -22.3417731 -0.223418E+02  0.207E-01    2.80       0.0  T
   2    -22.3417738 -0.652488E-06  0.122E-01    2.80       1.0  T
   3    -22.3417740 -0.210157E-06  0.517E-03    2.81       5.6  T
   4    -22.3417741 -0.139075E-06  0.276E-03    2.81      10.5  T
   5    -22.3417741 -0.110489E-07  0.974E-04    2.81      29.6  T
   6    -22.3417741 -0.197806E-08  0.377E-04    2.81      76.6  T
     SCC iter.                  ...        0 min,  0.108 sec
     gradient                   ...        0 min,  0.001 sec
 * total energy  :   -22.1100368 Eh     change       -0.2475333E-04 Eh
   gradient norm :     0.0038706 Eh/α   predicted    -0.1252922E-04 ( -49.38%)
   displ. norm   :     0.0657936 α      lambda       -0.2076103E-04
   maximum displ.:     0.0502107 α      in ANC's #2, #3, #9, ...

........................................................................
.............................. CYCLE   27 ..............................
........................................................................

 iter      E             dE          RMSdq      gap      omega  full diag
   1    -22.3418476 -0.223418E+02  0.113E-01    2.81       0.0  T
   2    -22.3418478 -0.184262E-06  0.668E-02    2.81       1.0  T
   3    -22.3418479 -0.950382E-07  0.211E-03    2.81      13.7  T
   4    -22.3418479 -0.554348E-08  0.127E-03    2.81      22.8  T
   5    -22.3418479 -0.283842E-08  0.448E-04    2.81      64.4  T
   6    -22.3418479 -0.454207E-09  0.182E-04    2.81     158.2  T
     SCC iter.                  ...        0 min,  0.108 sec
     gradient                   ...        0 min,  0.001 sec
 * total energy  :   -22.1100546 Eh     change       -0.1778365E-04 Eh
   gradient norm :     0.0036119 Eh/α   predicted    -0.1042726E-04 ( -41.37%)
   displ. norm   :     0.1549671 α      lambda       -0.5324185E-04
   maximum displ.:     0.1161661 α      in ANC's #2, #3, #9, ...

........................................................................
.............................. CYCLE   28 ..............................
........................................................................

 iter      E             dE          RMSdq      gap      omega  full diag
   1    -22.3419297 -0.223419E+02  0.261E-01    2.80       0.0  T
   2    -22.3419307 -0.103164E-05  0.154E-01    2.80       1.0  T
   3    -22.3419312 -0.463881E-06  0.553E-03    2.81       5.2  T
   4    -22.3419313 -0.847063E-07  0.328E-03    2.81       8.8  T
   5    -22.3419313 -0.191169E-07  0.121E-03    2.81      23.9  T
   6    -22.3419313 -0.245997E-08  0.428E-04    2.81      67.4  T
   7    -22.3419313 -0.374957E-09  0.206E-04    2.81     139.8  T
     SCC iter.                  ...        0 min,  0.103 sec
     gradient                   ...        0 min,  0.001 sec
 * total energy  :   -22.1100858 Eh     change       -0.3125982E-04 Eh
   gradient norm :     0.0038814 Eh/α   predicted    -0.2725755E-04 ( -12.80%)
   displ. norm   :     0.0312847 α      lambda       -0.3228332E-04
   maximum displ.:     0.0181980 α      in ANC's #3, #2, #1, ...

........................................................................
.............................. CYCLE   29 ..............................
........................................................................

 iter      E             dE          RMSdq      gap      omega  full diag
   1    -22.3431611 -0.223432E+02  0.480E-02    2.82       0.0  T
   2    -22.3431614 -0.311737E-06  0.286E-02    2.82       1.0  T
   3    -22.3431614  0.579269E-07  0.378E-03    2.82       7.6  T
   4    -22.3431615 -0.111064E-06  0.964E-04    2.82      29.9  T
   5    -22.3431615 -0.309742E-08  0.557E-04    2.82      51.8  T
     SCC iter.                  ...        0 min,  0.114 sec
     gradient                   ...        0 min,  0.001 sec
 * total energy  :   -22.1101013 Eh     change       -0.1552736E-04 Eh
   gradient norm :     0.0013694 Eh/α   predicted    -0.1615713E-04 (   4.06%)
   displ. norm   :     0.1283641 α      lambda       -0.1482599E-04
   maximum displ.:     0.0879212 α      in ANC's #2, #3, #1, ...

........................................................................
.............................. CYCLE   30 ..............................
........................................................................

 iter      E             dE          RMSdq      gap      omega  full diag
   1    -22.3425154 -0.223425E+02  0.209E-01    2.79       0.0  T
   2    -22.3425161 -0.741862E-06  0.123E-01    2.79       1.0  T
   3    -22.3425164 -0.313407E-06  0.527E-03    2.80       5.5  T
   4    -22.3425165 -0.972484E-07  0.285E-03    2.80      10.1  T
   5    -22.3425165 -0.116977E-07  0.105E-03    2.80      27.5  T
   6    -22.3425165 -0.186235E-08  0.416E-04    2.80      69.5  T
   7    -22.3425165 -0.544169E-09  0.152E-04    2.80     190.4  T
     SCC iter.                  ...        0 min,  0.102 sec
     gradient                   ...        0 min,  0.002 sec
 * total energy  :   -22.1101088 Eh     change       -0.7483821E-05 Eh
   gradient norm :     0.0032272 Eh/α   predicted    -0.7467337E-05 (  -0.22%)
   displ. norm   :     0.0228478 α      lambda       -0.8448053E-05
   maximum displ.:     0.0177753 α      in ANC's #2, #3, #9, ...

........................................................................
.............................. CYCLE   31 ..............................
........................................................................

 iter      E             dE          RMSdq      gap      omega  full diag
   1    -22.3429212 -0.223429E+02  0.369E-02    2.81       0.0  T
   2    -22.3429213 -0.122576E-06  0.217E-02    2.81       1.3  T
   3    -22.3429213  0.141815E-07  0.220E-03    2.80      13.1  T
   4    -22.3429213 -0.329626E-07  0.700E-04    2.80      41.2  T
   5    -22.3429214 -0.198898E-08  0.302E-04    2.80      95.5  T
     SCC iter.                  ...        0 min,  0.108 sec
     gradient                   ...        0 min,  0.001 sec
 * total energy  :   -22.1101139 Eh     change       -0.5063351E-05 Eh
   gradient norm :     0.0008980 Eh/α   predicted    -0.4226280E-05 ( -16.53%)
   displ. norm   :     0.0127406 α      lambda       -0.1499810E-05
   maximum displ.:     0.0110368 α      in ANC's #3, #5, #10, ...

........................................................................
.............................. CYCLE   32 ..............................
........................................................................

 iter      E             dE          RMSdq      gap      omega  full diag
   1    -22.3431144 -0.223431E+02  0.158E-02    2.81       0.0  T
   2    -22.3431144 -0.692158E-07  0.950E-03    2.81       3.0  T
   3    -22.3431144  0.273122E-07  0.223E-03    2.81      12.9  T
   4    -22.3431144 -0.383285E-07  0.500E-04    2.81      57.8  T
   5    -22.3431144 -0.128494E-08  0.187E-04    2.81     154.3  T
     SCC iter.                  ...        0 min,  0.103 sec
     gradient                   ...        0 min,  0.003 sec
 * total energy  :   -22.1101149 Eh     change       -0.1035959E-05 Eh
   gradient norm :     0.0003510 Eh/α   predicted    -0.7510461E-06 ( -27.50%)
   displ. norm   :     0.0087700 α      lambda       -0.2285543E-06
   maximum displ.:     0.0060728 α      in ANC's #2, #3, #9, ...

........................................................................
.............................. CYCLE   33 ..............................
........................................................................

 iter      E             dE          RMSdq      gap      omega  full diag
   1    -22.3430445 -0.223430E+02  0.142E-02    2.81       0.0  T
   2    -22.3430445 -0.565148E-08  0.842E-03    2.81       3.4  T
   3    -22.3430445  0.463443E-08  0.891E-04    2.81      32.4  T
   4    -22.3430445 -0.736213E-08  0.210E-04    2.81     137.7  T
     SCC iter.                  ...        0 min,  0.098 sec
     gradient                   ...        0 min,  0.002 sec
 * total energy  :   -22.1101151 Eh     change       -0.2018395E-06 Eh
   gradient norm :     0.0001242 Eh/α   predicted    -0.1151554E-06 ( -42.95%)
   displ. norm   :     0.0019355 α      lambda       -0.4490946E-07
   maximum displ.:     0.0013063 α      in ANC's #1, #3, #9, ...

........................................................................
.............................. CYCLE   34 ..............................
........................................................................

 iter      E             dE          RMSdq      gap      omega  full diag
   1    -22.3430358 -0.223430E+02  0.245E-03    2.81       0.0  T
   2    -22.3430358 -0.120158E-08  0.144E-03    2.81      20.1  T
   3    -22.3430358  0.131010E-08  0.505E-04    2.81      57.2  T
   4    -22.3430358 -0.180304E-08  0.566E-05    2.81     510.3  T
     SCC iter.                  ...        0 min,  0.101 sec
     gradient                   ...        0 min,  0.005 sec
 * total energy  :   -22.1101152 Eh     change       -0.3268840E-07 Eh
   gradient norm :     0.0001418 Eh/α   predicted    -0.2409882E-07 ( -26.28%)
   displ. norm   :     0.0014783 α      lambda       -0.1628864E-07
   maximum displ.:     0.0009821 α      in ANC's #2, #1, #3, ...

   *** GEOMETRY OPTIMIZATION CONVERGED AFTER 34 ITERATIONS ***

------------------------------------------------------------------------
 total energy gain   :        -0.0117908 Eh       -7.3988 kcal/mol
 total RMSD          :         0.6490002 a0        0.3434 Å
 total power (kW/mol):        -0.9104908 (step)   -7.6767 (real)
------------------------------------------------------------------------

 ANCopt (total)                0 d,  0 h,  0 min,  4.033 sec
 optimizer setup                ...        0 min,  0.000 sec (  0.003%)
 model hessian                  ...        0 min,  0.004 sec (  0.105%)
 ANC generation                 ...        0 min,  0.000 sec (  0.011%)
 coordinate transformation      ...        0 min,  0.000 sec (  0.009%)
 single point calculation       ...        0 min,  4.018 sec ( 99.645%)
 optimization log               ...        0 min,  0.003 sec (  0.068%)
 hessian update                 ...        0 min,  0.002 sec (  0.044%)
 rational function              ...        0 min,  0.003 sec (  0.068%)

================
 final structure:
================
12
 xtb: 6.7.0 (08769fc)
N           -2.53117772737519       -0.07028630629265       -0.46883517527531
C           -1.36750149140677       -0.04527740045682       -0.02736496188359
C           -0.30148725088579       -0.99922525239985        0.49254639852890
C            0.51043670452782        0.30903309422844        0.63748955174406
O           -0.60072906370614        1.06758274452756        0.13172904861662
C            1.71946902015037        0.36575024635172       -0.25722078910172
O            2.82154661024362        0.02811428661758        0.07027592786721
H           -2.95872970435201       -0.98782358865951       -0.51946387682825
H            0.08026093650442       -1.71125789227985       -0.23655255623267
H           -0.53773516478035       -1.50717784815860        1.42418198912997
H            0.76266178405445        0.59059052342696        1.66382094688960
H            1.48606099272556        0.72299021499503       -1.27729211985481
 
 Bond Distances (Angstroems)
 ---------------------------
N1-C2=1.2449         N1-H8=1.0135         C2-N1=1.2449         C2-C3=1.5221         C2-O5=1.3608         C3-C2=1.5221         
C3-C4=1.5465         C3-H9=1.0883         C3-H10=1.0871        C4-C3=1.5465         C4-O5=1.4373         C4-C6=1.5052         
C4-H11=1.0937        O5-C2=1.3608         O5-C4=1.4373         C6-C4=1.5052         C6-O7=1.1983         C6-H12=1.1057        
O7-C6=1.1983         H8-N1=1.0135         H9-C3=1.0883         H10-C3=1.0871        H11-C4=1.0937        H12-C6=1.1057        
 C  H  Rav=1.0937 sigma=0.0074  Rmin=1.0871  Rmax=1.1057     4
 C  C  Rav=1.5246 sigma=0.0170  Rmin=1.5052  Rmax=1.5465     3
 N  H  Rav=1.0135 sigma=0.0000  Rmin=1.0135  Rmax=1.0135     1
 N  C  Rav=1.2449 sigma=0.0000  Rmin=1.2449  Rmax=1.2449     1
 O  C  Rav=1.3321 sigma=0.0997  Rmin=1.1983  Rmax=1.4373     3
 
 selected bond angles (degree)
 --------------------
H8-N1-C2=115.48                C3-C2-N1=139.75                O5-C2-N1=125.78                O5-C2-C3= 94.47                
C4-C3-C2= 82.50                H9-C3-C2=115.27                H9-C3-C4=115.60                H10-C3-C2=115.68               
H10-C3-C4=115.41               H10-C3-H9=110.16               O5-C4-C3= 90.44                C6-C4-C3=113.45                
C6-C4-O5=113.07                H11-C4-C3=115.26               H11-C4-O5=111.88               H11-C4-C6=111.28               
C4-O5-C2= 92.59                O7-C6-C4=124.45                H12-C6-C4=113.02               H12-C6-O7=122.50               
 
 selected dihedral angles (degree)
 ---------------------------------
C3-C2-N1-H8=  0.24            O5-C2-N1-H8=180.14            C4-C3-C2-N1=179.64            C4-C3-C2-O5=359.72            
H9-C3-C2-N1= 64.81            H9-C3-C2-O5=244.90            H10-C3-C2-N1=294.28           H10-C3-C2-O5=114.36           
O5-C4-C3-C2=  0.26            O5-C4-C3-H9=114.74            O5-C4-C3-H10=245.34           C6-C4-C3-C2=244.76            
C6-C4-C3-H9=359.24            C6-C4-C3-H10=129.84           H11-C4-C3-C2=114.82           H11-C4-C3-H9=229.30           
H11-C4-C3-H10=359.90          C4-O5-C2-N1=180.36            C4-O5-C2-C3=  0.30            C2-O5-C4-C3=359.71            
C2-O5-C4-C6=115.54            C2-O5-C4-H11=242.13           O7-C6-C4-C3=266.59            O7-C6-C4-O5=165.42            
O7-C6-C4-H11= 38.51           H12-C6-C4-C3= 84.59           H12-C6-C4-O5=343.42           H12-C6-C4-H11=216.51          
           -------------------------------------------------
          |                Final Singlepoint                |
           -------------------------------------------------

          ...................................................
          :                      SETUP                      :
          :.................................................:
          :  # basis functions                  33          :
          :  # atomic orbitals                  33          :
          :  # shells                           19          :
          :  # electrons                        38          :
          :  max. iterations                  4000          :
          :  Hamiltonian                  GFN2-xTB          :
          :  restarted?                      false          :
          :  GBSA solvation                   true          :
          :  PC potential                    false          :
          :  electronic temp.          300.0000000     K    :
          :  accuracy                    1.0000000          :
          :  -> integral cutoff          0.2500000E+02      :
          :  -> integral neglect         0.1000000E-07      :
          :  -> SCF convergence          0.1000000E-05 Eh   :
          :  -> wf. convergence          0.1000000E-03 e    :
          :  Broyden damping             0.4000000          :
          :  net charge                          0          :
          :  unpaired electrons                  0          :
          ...................................................

 iter      E             dE          RMSdq      gap      omega  full diag
   1    -22.3430358 -0.223430E+02  0.273E-05    2.81       0.0  T
   2    -22.3430358 -0.607514E-12  0.171E-05    2.81    1687.4  T
   3    -22.3430358  0.710543E-14  0.881E-06    2.81    3278.1  T

   *** convergence criteria satisfied after 3 iterations ***

         #    Occupation            Energy/Eh            Energy/eV
      -------------------------------------------------------------
         1        2.0000           -0.7558072             -20.5666
       ...           ...                  ...                  ...
        13        2.0000           -0.5288563             -14.3909
        14        2.0000           -0.5124660             -13.9449
        15        2.0000           -0.5070066             -13.7964
        16        2.0000           -0.4885311             -13.2936
        17        2.0000           -0.4521124             -12.3026
        18        2.0000           -0.4270201             -11.6198
        19        2.0000           -0.4021746             -10.9437 (HOMO)
        20                         -0.2990674              -8.1380 (LUMO)
        21                         -0.2345917              -6.3836
        22                         -0.0419288              -1.1409
        23                         -0.0196243              -0.5340
        24                          0.0547402               1.4896
       ...                                ...                  ...
        33                          0.6520006              17.7418
      -------------------------------------------------------------
                  HL-Gap            0.1031072 Eh            2.8057 eV
             Fermi-level           -0.3506210 Eh           -9.5409 eV

 SCC (total)                   0 d,  0 h,  0 min,  0.103 sec
 SCC setup                      ...        0 min,  0.000 sec (  0.164%)
 Dispersion                     ...        0 min,  0.000 sec (  0.036%)
 classical contributions        ...        0 min,  0.000 sec (  0.010%)
 integral evaluation            ...        0 min,  0.001 sec (  0.591%)
 iterations                     ...        0 min,  0.101 sec ( 98.004%)
 molecular gradient             ...        0 min,  0.001 sec (  1.061%)
 printout                       ...        0 min,  0.000 sec (  0.100%)

         :::::::::::::::::::::::::::::::::::::::::::::::::::::
         ::                     SUMMARY                     ::
         :::::::::::::::::::::::::::::::::::::::::::::::::::::
         :: total energy             -22.110115154900 Eh    ::
         :: total w/o Gsasa/hb       -22.102174818925 Eh    ::
         :: gradient norm              0.000142084812 Eh/a0 ::
         :: HOMO-LUMO gap              2.805689647996 eV    ::
         ::.................................................::
         :: SCC energy               -22.343031989657 Eh    ::
         :: -> isotropic ES            0.049941699980 Eh    ::
         :: -> anisotropic ES          0.003684417384 Eh    ::
         :: -> anisotropic XC          0.008367053378 Eh    ::
         :: -> dispersion             -0.007064308660 Eh    ::
         :: -> Gsolv                  -0.010412777616 Eh    ::
         ::    -> Gelec               -0.002472441641 Eh    ::
         ::    -> Gsasa               -0.010148479113 Eh    ::
         ::    -> Ghb                  0.000000000000 Eh    ::
         ::    -> Gshift               0.002208143139 Eh    ::
         :: repulsion energy           0.232916834757 Eh    ::
         :: add. restraining           0.000000000000 Eh    ::
         :: total charge               0.000000000000 e     ::
         :::::::::::::::::::::::::::::::::::::::::::::::::::::

           -------------------------------------------------
          |                Property Printout                |
           -------------------------------------------------

    * Orbital Energies and Occupations

         #    Occupation            Energy/Eh            Energy/eV
      -------------------------------------------------------------
         1        2.0000           -0.7558072             -20.5666
       ...           ...                  ...                  ...
         7        2.0000           -0.6136864             -16.6993
         8        2.0000           -0.5983731             -16.2826
         9        2.0000           -0.5963059             -16.2263
        10        2.0000           -0.5722874             -15.5727
        11        2.0000           -0.5587883             -15.2054
        12        2.0000           -0.5368661             -14.6089
        13        2.0000           -0.5288563             -14.3909
        14        2.0000           -0.5124660             -13.9449
        15        2.0000           -0.5070066             -13.7964
        16        2.0000           -0.4885311             -13.2936
        17        2.0000           -0.4521124             -12.3026
        18        2.0000           -0.4270201             -11.6198
        19        2.0000           -0.4021746             -10.9437 (HOMO)
        20                         -0.2990674              -8.1380 (LUMO)
        21                         -0.2345917              -6.3836
        22                         -0.0419288              -1.1409
        23                         -0.0196243              -0.5340
        24                          0.0547402               1.4896
        25                          0.0676917               1.8420
        26                          0.1006236               2.7381
        27                          0.1148095               3.1241
        28                          0.1714883               4.6664
        29                          0.2185530               5.9471
        30                          0.2532928               6.8924
       ...                                ...                  ...
        33                          0.6520006              17.7418
      -------------------------------------------------------------
                  HL-Gap            0.1031072 Eh            2.8057 eV
             Fermi-level           -0.3506210 Eh           -9.5409 eV

     #   Z          covCN         q      C6AA      α(0)
     1   7 N        1.771    -0.344    29.741     8.075
     2   6 C        3.181     0.256    22.352     7.717
     3   6 C        3.846    -0.090    22.185     6.700
     4   6 C        4.163     0.094    18.950     6.183
     5   8 O        1.747    -0.269    18.458     5.801
     6   6 C        2.756     0.209    23.563     7.949
     7   8 O        0.856    -0.311    19.975     5.992
     8   1 H        0.860     0.174     1.250     1.751
     9   1 H        0.925     0.070     2.082     2.256
    10   1 H        0.925     0.080     1.974     2.197
    11   1 H        0.924     0.077     2.006     2.215
    12   1 H        0.922     0.053     2.289     2.366

 Mol. C6AA /au·bohr⁶  :       1572.542060
 Mol. C8AA /au·bohr⁸  :      35635.009317
 Mol. α(0) /au        :         59.203525


Wiberg/Mayer (AO) data.
largest (>0.10) Wiberg bond orders for each atom

 ---------------------------------------------------------------------------
     #   Z sym  total        # sym  WBO       # sym  WBO       # sym  WBO
 ---------------------------------------------------------------------------
     1   7 N    3.046 --     2 C    1.855     8 H    0.936     5 O    0.136
     2   6 C    3.927 --     1 N    1.855     5 O    1.076     3 C    0.956
     3   6 C    3.982 --     9 H    0.965    10 H    0.962     2 C    0.956
                             4 C    0.952
     4   6 C    3.936 --     6 C    0.991     5 O    0.953     3 C    0.952
                            11 H    0.950
     5   8 O    2.246 --     2 C    1.076     4 C    0.953     1 N    0.136
     6   6 C    3.912 --     7 O    1.934     4 C    0.991    12 H    0.928
     7   8 O    2.101 --     6 C    1.934
     8   1 H    0.970 --     1 N    0.936
     9   1 H    0.995 --     3 C    0.965
    10   1 H    0.994 --     3 C    0.962
    11   1 H    0.994 --     4 C    0.950
    12   1 H    0.997 --     6 C    0.928
 ---------------------------------------------------------------------------

Topologies differ in total number of bonds
Writing topology from bond orders to xtbtopo.mol

molecular dipole:
                 x           y           z       tot (Debye)
 q only:       -0.330      -0.789       0.242
   full:       -0.190      -1.041       0.347       2.831
molecular quadrupole (traceless):
                xx          xy          yy          xz          yz          zz
 q only:       -8.245       4.698       3.556      -1.524      -0.181       4.689
  q+dip:      -12.965       7.259       4.897      -3.293       0.229       8.067
   full:      -13.163       7.632       5.692      -3.367       0.659       7.471

           -------------------------------------------------
          |                Geometry Summary                 |
           -------------------------------------------------

      molecular mass/u    :       99.0881604
   center of mass at/Å    :        0.0569047       0.0927434       0.0795521
  moments of inertia/u·Å² :        0.5616559E+02   0.3145398E+03   0.3377831E+03
rotational constants/cm⁻¹ :        0.3001417E+00   0.5359460E-01   0.4990668E-01

 * 9 selected distances

     #   Z          #   Z                                           value/Å
     1   7 N        2   6 C                                       1.2448550
     3   6 C        4   6 C                                       1.5465346 (max)
     2   6 C        5   8 O                                       1.3607751
     4   6 C        5   8 O                                       1.4373173
     4   6 C        6   6 C                                       1.5051521
     6   6 C        7   8 O                                       1.1982602
     3   6 C        9   1 H                                       1.0882590
     3   6 C       10   1 H                                       1.0870943 (min)
     4   6 C       11   1 H                                       1.0937314

 * 4 distinct bonds (by element types)

   Z      Z             #   av. dist./Å        max./Å        min./Å
   1 H    6 C           3     1.0896949     1.0937314     1.0870943
   6 C    6 C           2     1.5258434     1.5465346     1.5051521
   6 C    7 N           1     1.2448550     1.2448550     1.2448550
   6 C    8 O           3     1.3321175     1.4373173     1.1982602


optimized geometry written to: xtbopt.xyz


           -------------------------------------------------
          | TOTAL ENERGY              -22.110115154900 Eh   |
          | GRADIENT NORM               0.000142084812 Eh/α |
          | HOMO-LUMO GAP               2.805689647996 eV   |
           -------------------------------------------------

------------------------------------------------------------------------
 * finished run on 2024/08/07 at 20:11:23.884     
------------------------------------------------------------------------
 total:
 * wall-time:     0 d,  0 h,  0 min,  4.269 sec
 *  cpu-time:     0 d,  0 h,  0 min, 30.880 sec
 * ratio c/w:     7.234 speedup
 SCF:
 * wall-time:     0 d,  0 h,  0 min,  0.120 sec
 *  cpu-time:     0 d,  0 h,  0 min,  0.920 sec
 * ratio c/w:     7.651 speedup
 ANC optimizer:
 * wall-time:     0 d,  0 h,  0 min,  4.137 sec
 *  cpu-time:     0 d,  0 h,  0 min, 29.891 sec
 * ratio c/w:     7.225 speedup

