12
 energy: -22.098324374838 gnorm: 0.085735823596 xtb: 6.7.0 (08769fc)
N           -2.56630858690000       -0.30040512580000       -0.46211472560000
C           -1.39200957660000       -0.03207766380000       -0.05767788090000
C           -0.32698080570000       -0.92843850080000        0.51516660310000
C            0.50833933890000        0.36677960110000        0.59664138300000
O           -0.60404785100000        1.10989531200000        0.03985626910000
C            1.73616433930000        0.37332746670000       -0.27220407660000
O            2.50519144010000       -0.53725200990000       -0.32286641710000
H           -2.91343349070000       -1.22200654830000       -0.43193717430000
H            0.07045560750000       -1.65343630450000       -0.20169187030000
H           -0.59268366190000       -1.37532022810000        1.47902616170000
H            0.70759469690000        0.71428773290000        1.62798335210000
H            1.95079419580000        1.24765909040000       -0.87686724060000
12
 energy: -22.106258237376 gnorm: 0.034445595054 xtb: 6.7.0 (08769fc)
N           -2.54778367693059       -0.24095921784789       -0.47106113476870
C           -1.38620204701276       -0.04742782674448       -0.05987867378673
C           -0.31830938475981       -0.95371278006538        0.52569181525288
C            0.49238496350124        0.35453975720137        0.58606605902614
O           -0.61855816762359        1.08773651504988        0.01869551221702
C            1.73828796298070        0.37905634264602       -0.25802624148831
O            2.52009435664366       -0.53167380078244       -0.31106949316400
H           -2.91127655826160       -1.17678484161581       -0.43387954263956
H            0.07960721697678       -1.69404108617678       -0.16722288396330
H           -0.57031830159996       -1.40364796979112        1.48380699302746
H            0.71020198870048        0.71769601484256        1.60021825997177
H            1.89494729308545        1.27223171518408       -0.88002628608466
12
 energy: -22.108817274054 gnorm: 0.018840331884 xtb: 6.7.0 (08769fc)
N           -2.54704148853788       -0.18344455951955       -0.48644095818241
C           -1.38288958452618       -0.07632052283657       -0.06107213675660
C           -0.31108704224604       -0.98119765936275        0.54183030500468
C            0.48514628912532        0.33351639068447        0.57031878751115
O           -0.62738879061373        1.04904656819389       -0.00522934315434
C            1.72841792568589        0.37244221625075       -0.27870700362706
O            2.55707708617514       -0.50060081765774       -0.29229735681210
H           -2.93638436490178       -1.12169122534217       -0.43967113516389
H            0.08769388542661       -1.73754918384056       -0.12964262269274
H           -0.55050166164426       -1.42404147284338        1.50245512068641
H            0.72451971569318        0.72160415616961        1.56787535112743
H            1.85551367606372        1.31124893200400       -0.85610462434053
12
 energy: -22.109026913513 gnorm: 0.014288735571 xtb: 6.7.0 (08769fc)
N           -2.54278487193706       -0.16221996397383       -0.50080620997197
C           -1.37581645475467       -0.09002260609932       -0.06275022130100
C           -0.30721560339060       -0.99059276996010        0.55092664044098
C            0.48973772785342        0.32345079520626        0.57724532687185
O           -0.61950827128192        1.03335983710985       -0.00614439837169
C            1.74527906259477        0.38843143683521       -0.25604923316356
O            2.56440159868043       -0.48431248072254       -0.30272515867908
H           -2.94730620426078       -1.09512408802025       -0.45632721311404
H            0.09591648708125       -1.75342913223891       -0.11182904250048
H           -0.55127822413443       -1.42745199391538        1.51411207977450
H            0.72566734446622        0.71621352763580        1.57304500443810
H            1.80598305478336        1.30471026004322       -0.88538319082361
12
 energy: -22.109287093195 gnorm: 0.005394573055 xtb: 6.7.0 (08769fc)
N           -2.54472337965730       -0.16726470746155       -0.49600471298480
C           -1.37801155614890       -0.09111221929086       -0.06216000925275
C           -0.30992223258033       -0.98970025904076        0.54902015883660
C            0.49036484567785        0.32270910103963        0.57337388855613
O           -0.61790437539460        1.03430872248858       -0.00903449495327
C            1.74033921313376        0.38321723180856       -0.26869948658449
O            2.57233203508907       -0.47872319169349       -0.30020536332743
H           -2.95010814021642       -1.09742976592477       -0.45310376034385
H            0.09074258409974       -1.75418985257959       -0.11416912577904
H           -0.55401092902404       -1.42295553327583        1.51508653709709
H            0.72600014321977        0.71497388355049        1.57056452447841
H            1.81797743750141        1.30917941227959       -0.87135377214258
12
 energy: -22.109337660782 gnorm: 0.002672968116 xtb: 6.7.0 (08769fc)
N           -2.54366744532119       -0.16597993592224       -0.49597146232343
C           -1.37727607395341       -0.09424213102306       -0.06236648550110
C           -0.31055423908523       -0.99100162106981        0.54892929168749
C            0.49188731929545        0.32002721786867        0.57300414796182
O           -0.61491013733297        1.03271676942492       -0.00997030344174
C            1.74109666619692        0.38287018473400       -0.27120721494353
O            2.58334722390718       -0.46930489519406       -0.29705289146118
H           -2.95532875197139       -1.09219548732518       -0.45396945808787
H            0.08879910081996       -1.75781732609260       -0.11250318783180
H           -0.55673119046576       -1.42115731311711        1.51647526646201
H            0.72636096137845        0.71130991986217        1.57131566732608
H            1.81005221223198        1.30778743975431       -0.87336898624675
12
 energy: -22.109374730985 gnorm: 0.002396576412 xtb: 6.7.0 (08769fc)
N           -2.54116317101150       -0.16263411390204       -0.49691184436234
C           -1.37552399005548       -0.09735903275848       -0.06242265472141
C           -0.31053759126026       -0.99309800259622        0.54919224258851
C            0.49408346562787        0.31652066868500        0.57416633853936
O           -0.61116348335803        1.03111995289606       -0.00864012081630
C            1.74229365857544        0.38336970452870       -0.27205261216832
O            2.59812612585334       -0.45524934176134       -0.28950038026966
H           -2.96224047215763       -1.08381447568213       -0.45810051317662
H            0.08755985075526       -1.76250243865691       -0.10972119539394
H           -0.55934004085035       -1.42052297120543        1.51767241890201
H            0.72787557106246        0.70540920727095        1.57383647146100
H            1.79310572251888        1.30177366508184       -0.88420376698230
12
 energy: -22.109401394896 gnorm: 0.003109364341 xtb: 6.7.0 (08769fc)
N           -2.53864291507105       -0.15883166179741       -0.49787410900752
C           -1.37400925387250       -0.09832991275368       -0.06165111187555
C           -0.30992878524766       -0.99488745020270        0.54931227867057
C            0.49595229639919        0.31408885366644        0.57651500069377
O           -0.60892524752897        1.03072647529852       -0.00416722233614
C            1.74237802845622        0.38382042310702       -0.27202818816128
O            2.61113755711448       -0.44158369833981       -0.27777039328038
H           -2.96724025988099       -1.07634810696918       -0.46450060901962
H            0.08739308838850       -1.76542978597666       -0.10831850526863
H           -0.56027067975203       -1.42168473448029        1.51773470178050
H            0.73049971338707        0.69963656351098        1.57727126099168
H            1.77473210330776        1.29183585683677       -0.90120871958740
12
 energy: -22.109438966192 gnorm: 0.004264132749 xtb: 6.7.0 (08769fc)
N           -2.53488947339351       -0.15238537007183       -0.49897102003220
C           -1.37220318253858       -0.09731970504884       -0.05914212292264
C           -0.30847869486723       -0.99722241111780        0.54873676221252
C            0.49845427918102        0.31167664231537        0.58133151021805
O           -0.60741061398030        1.03183743061578        0.00717692624787
C            1.74089919420657        0.38413436470362       -0.27190606501889
O            2.63116148064980       -0.41856037607655       -0.25214491201913
H           -2.97255869934342       -1.06562852952958       -0.47686937749884
H            0.08778146876754       -1.76776269609204       -0.10891972198133
H           -0.55983785808291       -1.42530628036084        1.51624532061191
H            0.73597844586981        0.68982623497881        1.58390269779617
H            1.74417929923122        1.26972351758391       -0.93612561401347
12
 energy: -22.109478593908 gnorm: 0.004620343778 xtb: 6.7.0 (08769fc)
N           -2.53226066544632       -0.14724833102770       -0.49930174713715
C           -1.37149498500372       -0.09390611256628       -0.05582879829307
C           -0.30684010273513       -0.99817255043173        0.54709769961812
C            0.49976874310911        0.31178329352797        0.58613258184422
O           -0.60858493266443        1.03489526312884        0.02067244139739
C            1.73796337568106        0.38400420790544       -0.27185103191426
O            2.64515469788111       -0.39839550133670       -0.22512969263882
H           -2.97335149782110       -1.05890130518936       -0.48841083153085
H            0.08874250764603       -1.76682846977759       -0.11282410951047
H           -0.55732169672070       -1.42947694797585        1.51323206848646
H            0.74139998777468        0.68112899117015        1.59055142486041
H            1.71990021399940        1.24413028447281       -0.97102562158197
12
 energy: -22.109536034308 gnorm: 0.004943659037 xtb: 6.7.0 (08769fc)
N           -2.53122935018778       -0.14130116542192       -0.49847376304874
C           -1.37203611968283       -0.08757556255771       -0.05097498460149
C           -0.30516137544846       -0.99840650116127        0.54334314039972
C            0.50015029444743        0.31368342027741        0.59140467756991
O           -0.61238157275365        1.03990525482738        0.03876266527805
C            1.73332588772179        0.38322599954866       -0.27227499205545
O            2.66015282512282       -0.37309007846932       -0.18835045949586
H           -2.97026755786683       -1.05408474086917       -0.49991140569791
H            0.08941413151970       -1.76288617117492       -0.12202341777570
H           -0.55262738488049       -1.43538669206023        1.50749852125630
H            0.74779749919073        0.67125792051688        1.59799210173951
H            1.69593836851758        1.20767113844423       -1.01367769996835
12
 energy: -22.109588259228 gnorm: 0.003837809783 xtb: 6.7.0 (08769fc)
N           -2.53269077617042       -0.13757660837921       -0.49640368124087
C           -1.37345247558711       -0.08156244374846       -0.04773318073845
C           -0.30493068815884       -0.99754762079432        0.53873854433188
C            0.49936741553972        0.31611898626456        0.59410391181401
O           -0.61586824032494        1.04412168711437        0.05043410773891
C            1.73017841843024        0.38222668989432       -0.27233239305161
O            2.66873483458679       -0.35426829168037       -0.16173001575497
H           -2.96345901672432       -1.05447063738557       -0.50246943038408
H            0.08834396185386       -1.75765626850629       -0.13279335003935
H           -0.54926163627893       -1.43969241591292        1.50127510433906
H            0.75069478225122        0.66513192923024        1.60228160427774
H            1.68541906628274        1.17818781580363       -1.04005683769226
12
 energy: -22.109264545869 gnorm: 0.029831147076 xtb: 6.7.0 (08769fc)
N           -2.53446293712089       -0.12027904326572       -0.49061642190259
C           -1.37474909753867       -0.06928110109889       -0.03909828626905
C           -0.30489743463075       -0.99937771942299        0.52592223810883
C            0.50084661536252        0.31567174082761        0.60319132190263
O           -0.61790336979755        1.05189950917375        0.08165323292149
C            1.72498721765671        0.37986986167275       -0.27217146153810
O            2.72122016883669       -0.28153035308839       -0.07196366499803
H           -2.95600921653983       -1.04191091776119       -0.51223058553802
H            0.08235492533772       -1.74992432561290       -0.16043700010955
H           -0.54499204029738       -1.45398415771251        1.48401292635056
H            0.75959295893165        0.64108733095085        1.61699873646567
H            1.62708785549978        1.09077199723763       -1.13194665179382
12
 energy: -22.109659822496 gnorm: 0.002531936047 xtb: 6.7.0 (08769fc)
N           -2.53457319471534       -0.13123149367128       -0.49316655236243
C           -1.37363195550942       -0.07668969723535       -0.04595103105418
C           -0.30641311400901       -0.99715876070647        0.53256714967998
C            0.49973088307465        0.31577470842994        0.59720334172290
O           -0.61411109131785        1.04695343709815        0.05767936963532
C            1.73009653787580        0.38101824648779       -0.27057076504750
O            2.68745298797014       -0.32563951365602       -0.13248361274306
H           -2.95604539055122       -1.05280491962074       -0.49860661237749
H            0.08406042657935       -1.75274445773953       -0.14593066437506
H           -0.55021562561936       -1.44488820566560        1.49285006534030
H            0.75027718557956        0.65718677498699        1.60798104809062
H            1.66644799634271        1.14323670319212       -1.06825735290939
12
 energy: -22.109688771420 gnorm: 0.001628801579 xtb: 6.7.0 (08769fc)
N           -2.53484701825164       -0.12865353583666       -0.49175164648713
C           -1.37315943625855       -0.07560865836965       -0.04608396093122
C           -0.30710593450165       -0.99731496587135        0.53053028740811
C            0.50037232483960        0.31481641810347        0.59811412655797
O           -0.61205728376325        1.04764112861533        0.05819600738457
C            1.73085424746285        0.38054898096249       -0.26966411704185
O            2.69638621554814       -0.31390890415239       -0.12251479834552
H           -2.95526885485935       -1.05091440654739       -0.49613041723559
H            0.08243086446316       -1.75176621534638       -0.14969707449650
H           -0.55144459847068       -1.44720932640929        1.48974060179287
H            0.74940547916143        0.65382889217565        1.61009378303280
H            1.65750964032995        1.13155341457617       -1.07751840803850
12
 energy: -22.108802024479 gnorm: 0.040843974384 xtb: 6.7.0 (08769fc)
N           -2.53654083417845       -0.10019715175412       -0.47680786956354
C           -1.36866948286855       -0.05963597563635       -0.04370492357280
C           -0.31156528687721       -0.99751711614373        0.50798147025322
C            0.50707894963414        0.30880678855232        0.61268333107185
O           -0.59466879219976        1.05879227199274        0.07553070961170
C            1.73472724548640        0.37498501497388       -0.25907288650975
O            2.78640962972733       -0.18115669399755       -0.00247173877655
H           -2.94407759961749       -1.03059045608383       -0.48089337257028
H            0.06966635382773       -1.73567107370451       -0.19486203596166
H           -0.55756632506985       -1.47564016460974        1.45417289964609
H            0.74323344391954        0.61661645721902        1.63814358299288
H            1.55504834391616        0.98422092109186       -1.19738478302113
12
 energy: -22.109758684522 gnorm: 0.008034044158 xtb: 6.7.0 (08769fc)
N           -2.53623949937316       -0.11492243289790       -0.48311725270224
C           -1.37082047082606       -0.06737443943966       -0.04553884706053
C           -0.30939321667506       -0.99666878065762        0.51833795949897
C            0.50352722431297        0.31237223318647        0.60521526871822
O           -0.60268355571362        1.05366125303769        0.06428619807852
C            1.73348150006630        0.37726509402564       -0.26340976953044
O            2.74016133982906       -0.24732380392212       -0.06376845515220
H           -2.94892241556017       -1.04199895003703       -0.48469987237756
H            0.07632830491310       -1.74181575889419       -0.17418709254704
H           -0.55459226029300       -1.46237869218896        1.47015283256105
H            0.74406368548386        0.63651469958977        1.62416751827741
H            1.60816500953579        1.05568240009791       -1.13412410416414
12
 energy: -22.109794287288 gnorm: 0.005281047536 xtb: 6.7.0 (08769fc)
N           -2.53720163701509       -0.11521989311137       -0.48265618877884
C           -1.37168354491302       -0.06753157446283       -0.04505706119383
C           -0.30883370927455       -0.99680420649231        0.51836280358685
C            0.50305407360336        0.31297029044154        0.60436113309861
O           -0.60472706593451        1.05336387678928        0.06506984413774
C            1.73267296640965        0.37698211959745       -0.26447676612292
O            2.73884551210959       -0.24601660296856       -0.06294578660120
H           -2.95106259692491       -1.04174267300311       -0.48570619782334
H            0.07735953065018       -1.74140373306544       -0.17457135447426
H           -0.55217747485877       -1.46283181266409        1.47032519389501
H            0.74487845761481        0.63758890976440        1.62254761247339
H            1.61195113423327        1.05365812107503       -1.13193884859720
12
 energy: -22.109820017430 gnorm: 0.003170113307 xtb: 6.7.0 (08769fc)
N           -2.53575156490263       -0.11518632181748       -0.48330721116871
C           -1.37160355576276       -0.06703968996044       -0.04317972919470
C           -0.30660729186708       -0.99664673606043        0.51908251682396
C            0.50308287501902        0.31469862633314        0.60697677838407
O           -0.60699392305874        1.05399695041420        0.07016115318625
C            1.73073669399102        0.37702096331065       -0.26412868496405
O            2.73517174733972       -0.24103119088882       -0.05976110216782
H           -2.95315019482400       -1.03952424529378       -0.49265605095413
H            0.08090788674374       -1.73918814906803       -0.17547286050887
H           -0.54824642316515       -1.46463005379689        1.47029204825607
H            0.74623673212898        0.63834193338986        1.62485339299634
H            1.60929266405789        1.04220073533802       -1.13954586708840
12
 energy: -22.109840947731 gnorm: 0.001571522387 xtb: 6.7.0 (08769fc)
N           -2.53643190614639       -0.11361529912027       -0.48187424870407
C           -1.37206429753346       -0.06712386362849       -0.04246119516163
C           -0.30596257284905       -0.99738854612720        0.51788770765741
C            0.50313792645082        0.31435118191337        0.60691599461908
O           -0.60771874832330        1.05354542920424        0.07138024160112
C            1.73052807016450        0.37658651080564       -0.26429755874818
O            2.74103998724058       -0.23023274972686       -0.05149293583679
H           -2.95700826709884       -1.03625360674848       -0.49324269256869
H            0.08126055547157       -1.73869987766816       -0.17815510534896
H           -0.54612122878740       -1.46680750826013        1.46865135735916
H            0.74682602989335        0.63729989340602        1.62463326413124
H            1.60559009721763        1.03135125785033       -1.14463044539968
12
 energy: -22.109827966327 gnorm: 0.018529840301 xtb: 6.7.0 (08769fc)
N           -2.53793372669159       -0.10051482116021       -0.47299754311451
C           -1.37271476849761       -0.06445850138871       -0.03699868177437
C           -0.30137929204434       -1.00097238760114        0.50867533226342
C            0.50459138161910        0.31305357619689        0.61256502568456
O           -0.60935110605262        1.05389846030693        0.08566430640615
C            1.72865297474556        0.37397799991301       -0.26201716816927
O            2.78294051682647       -0.14565769587906        0.01330599228882
H           -2.97540367713329       -1.01374344351687       -0.49978970806122
H            0.08399525110860       -1.73085894205130       -0.20077203409486
H           -0.53402093603622       -1.48440583833023        1.45401600537071
H            0.74901647038688        0.62559548636076        1.63220541610412
H            1.56468255746906        0.93709892904993       -1.20054255930354
12
 energy: -22.109957270833 gnorm: 0.003956754939 xtb: 6.7.0 (08769fc)
N           -2.53592170135245       -0.09911434812929       -0.47313081520755
C           -1.37093963838885       -0.06284235589367       -0.03678860327011
C           -0.30098377565256       -1.00005970772326        0.50735228820210
C            0.50542616044195        0.31359715957467        0.61578292956871
O           -0.60670769334665        1.05578811282615        0.08812842108891
C            1.72934360908337        0.37983457490740       -0.25765954559957
O            2.77680884556333       -0.13903651625737        0.01137896354651
H           -2.97017734980379       -1.01410240675768       -0.49985176172490
H            0.08439848922341       -1.72839894518434       -0.20334334314577
H           -0.53586276867372       -1.48571967951548        1.45107780860112
H            0.74779969022120        0.62304232198783        1.63735342517156
H            1.55989177838479        0.92002461206505       -1.20698538363100
12
 energy: -22.109964776956 gnorm: 0.004897339134 xtb: 6.7.0 (08769fc)
N           -2.53674795455621       -0.09855403616354       -0.47224947148169
C           -1.37134528855054       -0.06217842846006       -0.03679840247794
C           -0.30261906474518       -0.99994166478363        0.50677579425500
C            0.50554458303608        0.31246750437477        0.61502102124391
O           -0.60532531828932        1.05607857459680        0.08701857472364
C            1.72763351635939        0.37028943013014       -0.26191248550418
O            2.77887925543977       -0.12983855839757        0.01401725476891
H           -2.96815911783401       -1.01513784751547       -0.49744337688704
H            0.08172562319470       -1.72857795321125       -0.20404062661402
H           -0.53779637265130       -1.48532810690040        1.45061056809217
H            0.74853110396465        0.62180589094503        1.63685200803722
H            1.56275468033197        0.92192801728518       -1.20453647455597
12
 energy: -22.109993441135 gnorm: 0.001223566848 xtb: 6.7.0 (08769fc)
N           -2.53663368105430       -0.09763795988754       -0.47234554180446
C           -1.37115596468670       -0.06122740508186       -0.03671453900057
C           -0.30237934066652       -0.99936081165902        0.50604592597723
C            0.50551260012656        0.31311709093038        0.61642473475362
O           -0.60572448154275        1.05718204386047        0.08961313970888
C            1.72876625990685        0.37351518153063       -0.25948815625671
O            2.78151986478537       -0.12771885786729        0.01525539220465
H           -2.96675859694012       -1.01486672593536       -0.49833760049061
H            0.08238378209291       -1.72698926373687       -0.20564906897413
H           -0.53789201272885       -1.48625698011157        1.44906068376609
H            0.74805856560792        0.62077592408103        1.63872040671002
H            1.55737865079963        0.91248058577700       -1.20927099299398
12
 energy: -22.110012013079 gnorm: 0.001658370703 xtb: 6.7.0 (08769fc)
N           -2.53638963674557       -0.09462771873527       -0.47189051082614
C           -1.37064833550682       -0.05862329748860       -0.03619607393847
C           -0.30270884699665       -0.99863394795498        0.50401737225632
C            0.50577959665432        0.31321577460170        0.61934565516524
O           -0.60467083467265        1.05928327195387        0.09386735279241
C            1.72875789580642        0.37389780697215       -0.25765537451505
O            2.78743304912157       -0.11444063943702        0.02127310189256
H           -2.96270818637119       -1.01385348641804       -0.49883965626561
H            0.08199071283235       -1.72429208712271       -0.20985481885424
H           -0.53894988314860       -1.48863896408258        1.44530964868707
H            0.74809881887992        0.61769168714391        1.64251579242642
H            1.54709129584690        0.89203442246756       -1.21857810522047
12
 energy: -22.110036766406 gnorm: 0.003871269540 xtb: 6.7.0 (08769fc)
N           -2.53578707299318       -0.08842516545300       -0.47089221061598
C           -1.36968718190435       -0.05370499949660       -0.03503049898363
C           -0.30344406707131       -0.99772461044575        0.50027847051651
C            0.50665413270456        0.31270066070058        0.62436187642061
O           -0.60247076554075        1.06274180853241        0.10211015522274
C            1.72700368885289        0.37149782655202       -0.25650917489140
O            2.79801774171820       -0.08365627509538        0.03513356133961
H           -2.95616088673512       -1.01072128993273       -0.50007456511239
H            0.08072749100781       -1.71959686314035       -0.21786668614492
H           -0.54047425378142       -1.49337132060770        1.43851665638670
H            0.74972389780085        0.61088442510763        1.64891573954415
H            1.52897292164182        0.85238862517891       -1.23562894008198
12
 energy: -22.110054550058 gnorm: 0.003612738601 xtb: 6.7.0 (08769fc)
N           -2.53528860744351       -0.08523278599828       -0.47034135911583
C           -1.36926395603823       -0.05113966941161       -0.03396605088489
C           -0.30342839901258       -0.99721510035392        0.49833611501167
C            0.50717257984538        0.31272236682721        0.62700926061358
O           -0.60190203702973        1.06456922611787        0.10727507554036
C            1.72543257948421        0.37005240869689       -0.25631981175686
O            2.80218038109134       -0.06607731307262        0.04248797387326
H           -2.95353242077809       -1.00852049925632       -0.50194163743832
H            0.08053576748907       -1.71686809121479       -0.22219594223242
H           -0.54037367348659       -1.49581835729252        1.43501029881290
H            0.75138958745283        0.60712372527032        1.65219126824544
H            1.52015384412591        0.82941691158780       -1.24423080706888
12
 energy: -22.110085809875 gnorm: 0.003883663792 xtb: 6.7.0 (08769fc)
N           -2.53377634067364       -0.07797441904574       -0.46921095387597
C           -1.36840733783586       -0.04586381514328       -0.03088709772708
C           -0.30286411060237       -0.99659672167529        0.49423925742672
C            0.50849421408282        0.31262470035068        0.63289492528985
O           -0.60142582207882        1.06817281783839        0.12021624161641
C            1.72130379589957        0.36657209583082       -0.25670362842421
O            2.81120691779718       -0.02303142546806        0.05937396248041
H           -2.95023114818081       -1.00177333141413       -0.50820884587007
H            0.08039054522820       -1.71116243429974       -0.23177970178268
H           -0.53912637758842       -1.50160529213244        1.42754910250242
H            0.75637314016889        0.59871099153588        1.65912123985533
H            1.50113816948325        0.77493965552293       -1.26329011789110
12
 energy: -22.110101337235 gnorm: 0.001369726035 xtb: 6.7.0 (08769fc)
N           -2.53293057104948       -0.07697253145346       -0.46954624118489
C           -1.36831011889802       -0.04564787074089       -0.02979668506935
C           -0.30231560815009       -0.99693220995376        0.49421300977666
C            0.50890535706142        0.31239788622601        0.63369549627233
O           -0.60213129658948        1.06818991204269        0.12360277293641
C            1.71987840838720        0.36577287449387       -0.25774879952646
O            2.81082840011423       -0.01299902335618        0.06041810174018
H           -2.95217125679813       -0.99910458750548       -0.51192326931492
H            0.08074879159647       -1.71091457372303       -0.23231242915471
H           -0.53799965130614       -1.50215898493515        1.42740465973453
H            0.75881261061513        0.59709026314200        1.65968526696855
H            1.49976058071687        0.76429166766339       -1.26437749957832
12
 energy: -22.110108821056 gnorm: 0.003229431084 xtb: 6.7.0 (08769fc)
N           -2.53130424579912       -0.07071788572361       -0.46879978559797
C           -1.36768321342188       -0.04327809361958       -0.02679824568557
C           -0.30162725732349       -0.99818565602549        0.49183892031525
C            0.51033798374422        0.31055146130242        0.63796968094241
O           -0.60161838360377        1.06911357928914        0.13383107861360
C            1.71800177337564        0.36458107474925       -0.25779820313477
O            2.82036236114564        0.02602250577528        0.07280666491335
H           -2.95480512181786       -0.99024130898285       -0.51920407520334