12
 energy: -22.110115154900 gnorm: 0.000142084812 xtb: 6.7.0 (08769fc)
N           -2.53117772737519       -0.07028630629265       -0.46883517527531
C           -1.36750149140677       -0.04527740045682       -0.02736496188359
C           -0.30148725088579       -0.99922525239985        0.49254639852890
C            0.51043670452782        0.30903309422844        0.63748955174406
O           -0.60072906370614        1.06758274452756        0.13172904861662
C            1.71946902015037        0.36575024635172       -0.25722078910172
O            2.82154661024362        0.02811428661758        0.07027592786721
H           -2.95872970435201       -0.98782358865951       -0.51946387682825
H            0.08026093650442       -1.71125789227985       -0.23655255623267
H           -0.53773516478035       -1.50717784815860        1.42418198912997
H            0.76266178405445        0.59059052342696        1.66382094688960
H            1.48606099272556        0.72299021499503       -1.27729211985481
