      -----------------------------------------------------------      
     |                   =====================                   |     
     |                           x T B                           |     
     |                   =====================                   |     
     |                         S. Grimme                         |     
     |          Mulliken Center for Theoretical Chemistry        |     
     |                    University of Bonn                     |     
      -----------------------------------------------------------      

   * xtb version 6.5.1 (fef0646) compiled by 'conda@b96dff2e9fd6' on 2023-01-04

   xtb is free software: you can redistribute it and/or modify it under
   the terms of the GNU Lesser General Public License as published by
   the Free Software Foundation, either version 3 of the License, or
   (at your option) any later version.
   
   xtb is distributed in the hope that it will be useful,
   but WITHOUT ANY WARRANTY; without even the implied warranty of
   MERCHANTABILITY or FITNESS FOR A PARTICULAR PURPOSE.  See the
   GNU Lesser General Public License for more details.
   
   Cite this work as:
   * C. Bannwarth, E. Caldeweyher, S. Ehlert, A. Hansen, P. Pracht,
     J. Seibert, S. Spicher, S. Grimme, WIREs Comput. Mol. Sci., 2020, 11,
     e01493. DOI: 10.1002/wcms.1493
   
   for GFN2-xTB:
   * C. Bannwarth, S. Ehlert and S. Grimme., J. Chem. Theory Comput., 2019,
     15, 1652-1671. DOI: 10.1021/acs.jctc.8b01176
   for GFN1-xTB:
   * S. Grimme, C. Bannwarth, P. Shushkov, J. Chem. Theory Comput., 2017,
     13, 1989-2009. DOI: 10.1021/acs.jctc.7b00118
   for GFN0-xTB:
   * P. Pracht, E. Caldeweyher, S. Ehlert, S. Grimme, ChemRxiv, 2019, preprint.
     DOI: 10.26434/chemrxiv.8326202.v1
   for GFN-FF:
   * S. Spicher and S. Grimme, Angew. Chem. Int. Ed., 2020, 59, 15665-15673.
     DOI: 10.1002/anie.202004239
   
   for ALPB and GBSA implicit solvation:
   * S. Ehlert, M. Stahn, S. Spicher, S. Grimme, J. Chem. Theory Comput.,
     2021, 17, 4250-4261. DOI: 10.1021/acs.jctc.1c00471
   
   for DFT-D4:
   * E. Caldeweyher, C. Bannwarth and S. Grimme, J. Chem. Phys., 2017,
     147, 034112. DOI: 10.1063/1.4993215
   * E. Caldeweyher, S. Ehlert, A. Hansen, H. Neugebauer, S. Spicher,
     C. Bannwarth and S. Grimme, J. Chem. Phys., 2019, 150, 154122.
     DOI: 10.1063/1.5090222
   * E. Caldeweyher, J.-M. Mewes, S. Ehlert and S. Grimme, Phys. Chem. Chem. Phys.
     2020, 22, 8499-8512. DOI: 10.1039/D0CP00502A
   
   for sTDA-xTB:
   * S. Grimme and C. Bannwarth, J. Chem. Phys., 2016, 145, 054103.
     DOI: 10.1063/1.4959605
   
   in the mass-spec context:
   * V. Asgeirsson, C. Bauer and S. Grimme, Chem. Sci., 2017, 8, 4879.
     DOI: 10.1039/c7sc00601b
   * J. Koopman and S. Grimme, ACS Omega 2019, 4, 12, 15120-15133.
     DOI: 10.1021/acsomega.9b02011
   
   for metadynamics refer to:
   * S. Grimme, J. Chem. Theory Comput., 2019, 155, 2847-2862
     DOI: 10.1021/acs.jctc.9b00143
   
   for SPH calculations refer to:
   * S. Spicher and S. Grimme, J. Chem. Theory Comput., 2021, 17, 1701-1714
     DOI: 10.1021/acs.jctc.0c01306
   
   with help from (in alphabetical order)
   P. Atkinson, C. Bannwarth, F. Bohle, G. Brandenburg, E. Caldeweyher
   M. Checinski, S. Dohm, S. Ehlert, S. Ehrlich, I. Gerasimov, C. Hölzer
   A. Katbashev, J. Koopman, C. Lavigne, S. Lehtola, F. März, M. Müller,
   F. Musil, H. Neugebauer, J. Pisarek, C. Plett, P. Pracht, F. Pultar,
   J. Seibert, P. Shushkov, S. Spicher, M. Stahn, M. Steiner, T. Strunk,
   J. Stückrath, T. Rose, and J. Unsleber
   
 * started run on 2024/06/14 at 03:02:37.661     

           -------------------------------------------------
          |                Calculation Setup                |
           -------------------------------------------------

          program call               : xtb crest_best.xyz --opt normal -c 0 --iterations 4000
          coordinate file            : crest_best.xyz
          omp threads                :                     8

   ID    Z sym.   atoms
    1    6 C      1, 3-8, 10-14, 16-28, 30-32
    2   16 S      2, 9, 29
    3    7 N      15
    4    1 H      33-47

           -------------------------------------------------
          |                 G F N 2 - x T B                 |
           -------------------------------------------------

        Reference                      10.1021/acs.jctc.8b01176
      * Hamiltonian:
        H0-scaling (s, p, d)           1.850000    2.230000    2.230000
        zeta-weighting                 0.500000
      * Dispersion:
        s8                             2.700000
        a1                             0.520000
        a2                             5.000000
        s9                             5.000000
      * Repulsion:
        kExp                           1.500000    1.000000
        rExp                           1.000000
      * Coulomb:
        alpha                          2.000000
        third order                    shell-resolved
        anisotropic                    true
        a3                             3.000000
        a5                             4.000000
        cn-shift                       1.200000
        cn-exp                         4.000000
        max-rad                        5.000000


          ...................................................
          :                      SETUP                      :
          :.................................................:
          :  # basis functions                 161          :
          :  # atomic orbitals                 158          :
          :  # shells                           82          :
          :  # electrons                       150          :
          :  max. iterations                  4000          :
          :  Hamiltonian                  GFN2-xTB          :
          :  restarted?                      false          :
          :  GBSA solvation                  false          :
          :  PC potential                    false          :
          :  electronic temp.          300.0000000     K    :
          :  accuracy                    1.0000000          :
          :  -> integral cutoff          0.2500000E+02      :
          :  -> integral neglect         0.1000000E-07      :
          :  -> SCF convergence          0.1000000E-05 Eh   :
          :  -> wf. convergence          0.1000000E-03 e    :
          :  Broyden damping             0.4000000          :
          ...................................................

 iter      E             dE          RMSdq      gap      omega  full diag
   1    -81.1195920 -0.811196E+02  0.513E+00    0.90       0.0  T
   2    -80.1339657  0.985626E+00  0.509E+00    0.63       1.0  T
   3    -80.9191353 -0.785170E+00  0.340E+00    1.91       1.0  T
   4    -81.2235525 -0.304417E+00  0.182E+00    0.24       1.0  T
   5    -81.2259688 -0.241626E-02  0.178E+00    0.98       1.0  T
   6    -81.3847289 -0.158760E+00  0.894E-01    0.30       1.0  T
   7    -81.4141122 -0.293833E-01  0.366E-01    0.25       1.0  T
   8    -81.3431985  0.709137E-01  0.107E+00    0.24       1.0  T
   9    -81.3955211 -0.523226E-01  0.587E-01    0.28       1.0  T
  10    -81.4107577 -0.152367E-01  0.301E-01    0.23       1.0  T
  11    -81.4139251 -0.316737E-02  0.209E-01    0.25       1.0  T
  12    -81.4154064 -0.148132E-02  0.134E-01    0.24       1.0  T
  13    -81.4165060 -0.109956E-02  0.148E-02    0.23       1.0  T
  14    -81.4165140 -0.802365E-05  0.727E-03    0.24       2.0  T
  15    -81.4165157 -0.165091E-05  0.490E-03    0.24       3.0  T
  16    -81.4165166 -0.965429E-06  0.262E-03    0.24       5.6  T
  17    -81.4165170 -0.394262E-06  0.512E-04    0.24      28.5  T
  18    -81.4165170  0.329931E-07  0.897E-04    0.24      16.3  T

   *** convergence criteria satisfied after 18 iterations ***

         #    Occupation            Energy/Eh            Energy/eV
      -------------------------------------------------------------
         1        2.0000           -0.7364631             -20.0402
       ...           ...                  ...                  ...
        69        2.0000           -0.3961254             -10.7791
        70        2.0000           -0.3860341             -10.5045
        71        2.0000           -0.3831032             -10.4248
        72        2.0000           -0.3804107             -10.3515
        73        2.0000           -0.3644113              -9.9161
        74        2.0000           -0.3572736              -9.7219
        75        1.9791           -0.3118318              -8.4854 (HOMO)
        76        0.0209           -0.3031808              -8.2500 (LUMO)
        77                         -0.2821129              -7.6767
        78                         -0.2737455              -7.4490
        79                         -0.2514520              -6.8424
        80                         -0.2468306              -6.7166
       ...                                ...                  ...
       158                          0.9319251              25.3590
      -------------------------------------------------------------
                  HL-Gap            0.0086509 Eh            0.2354 eV
             Fermi-level           -0.3075063 Eh           -8.3677 eV

 SCC (total)                   0 d,  0 h,  0 min,  0.583 sec
 SCC setup                      ...        0 min,  0.001 sec (  0.142%)
 Dispersion                     ...        0 min,  0.003 sec (  0.567%)
 classical contributions        ...        0 min,  0.010 sec (  1.726%)
 integral evaluation            ...        0 min,  0.016 sec (  2.699%)
 iterations                     ...        0 min,  0.532 sec ( 91.176%)
 molecular gradient             ...        0 min,  0.019 sec (  3.322%)
 printout                       ...        0 min,  0.002 sec (  0.362%)

         :::::::::::::::::::::::::::::::::::::::::::::::::::::
         ::                     SUMMARY                     ::
         :::::::::::::::::::::::::::::::::::::::::::::::::::::
         :: total energy             -80.043186103397 Eh    ::
         :: gradient norm              0.096944973891 Eh/a0 ::
         :: HOMO-LUMO gap              0.235404078519 eV    ::
         ::.................................................::
         :: SCC energy               -81.416517000340 Eh    ::
         :: -> isotropic ES            0.007090431369 Eh    ::
         :: -> anisotropic ES          0.004018022163 Eh    ::
         :: -> anisotropic XC          0.038524633750 Eh    ::
         :: -> dispersion             -0.074480596368 Eh    ::
         :: repulsion energy           1.372866516805 Eh    ::
         :: add. restraining           0.000000000000 Eh    ::
         :: total charge              -0.000000000005 e     ::
         :::::::::::::::::::::::::::::::::::::::::::::::::::::

      ----------------------------------------------------------- 
     |                   =====================                   |
     |                        A N C O P T                        |
     |                   =====================                   |
     |               Approximate Normal Coordinate               |
     |                Rational Function Optimizer                |
      ----------------------------------------------------------- 

          ...................................................
          :                      SETUP                      :
          :.................................................:
          :   optimization level            normal          :
          :   max. optcycles                   200          :
          :   ANC micro-cycles                  20          :
          :   degrees of freedom               135          :
          :.................................................:
          :   RF solver                   davidson          :
          :   write xtbopt.log                true          :
          :   linear?                        false          :
          :   energy convergence         0.5000000E-05 Eh   :
          :   grad. convergence          0.1000000E-02 Eh/α :
          :   maximium RF displ.         1.0000000          :
          :   Hlow (freq-cutoff)         0.1000000E-01      :
          :   Hmax (freq-cutoff)         5.0000000          :
          :   S6 in model hess.         20.0000000          :
          ...................................................

generating ANC from model Hessian ...
Using Lindh-Hessian (1995)
 Shifting diagonal of input Hessian by    9.9419794489445535E-003
 Lowest  eigenvalues of input Hessian
    0.000000    0.000000    0.000000    0.000000    0.000000    0.000000
    0.010000    0.010268    0.010493    0.010681    0.011042    0.011107
    0.011673    0.013352    0.013749    0.014347    0.015767    0.017456
 Highest eigenvalues
    2.009921    2.024021    2.038466    2.078797    2.131602    2.293294


........................................................................
.............................. CYCLE    1 ..............................
........................................................................
   1    -81.4165170 -0.814165E+02  0.600E-04    0.24       0.0  T
   2    -81.4165079  0.910532E-05  0.117E-02    0.24       1.3  T
   3    -81.4165170 -0.911743E-05  0.401E-04    0.24      36.4  T
   4    -81.4165170 -0.821910E-08  0.178E-04    0.24      81.9  T
   5    -81.4165170 -0.152102E-08  0.883E-05    0.24     165.2  T
     SCC iter.                  ...        0 min,  0.221 sec
     gradient                   ...        0 min,  0.019 sec
 * total energy  :   -80.0431861 Eh     change       -0.4571417E-07 Eh
   gradient norm :     0.0969599 Eh/α   predicted     0.0000000E+00 (-100.00%)
   displ. norm   :     0.3229797 α      lambda       -0.1397596E-01
   maximum displ.:     0.1418942 α      in ANC's #19, #13, #15, ...

........................................................................
.............................. CYCLE    2 ..............................
........................................................................
   1    -81.4276694 -0.814277E+02  0.506E-01    0.33       0.0  T
   2    -80.8444505  0.583219E+00  0.295E+00    0.95       1.0  T
   3    -81.4406327 -0.596182E+00  0.143E-01    0.29       1.0  T
   4    -81.4368703  0.376241E-02  0.253E-01    0.30       1.0  T
   5    -81.4392098 -0.233951E-02  0.165E-01    0.28       1.0  T
   6    -81.4408176 -0.160777E-02  0.453E-02    0.29       1.0  T
   7    -81.4408286 -0.109950E-04  0.385E-02    0.29       1.0  T
   8    -81.4409201 -0.915524E-04  0.918E-03    0.29       1.6  T
   9    -81.4409246 -0.447799E-05  0.297E-03    0.29       4.9  T
  10    -81.4409250 -0.395079E-06  0.129E-03    0.29      11.3  T
  11    -81.4409250 -0.360372E-07  0.846E-04    0.29      17.2  T
  12    -81.4409250 -0.211333E-07  0.545E-04    0.29      26.8  T
     SCC iter.                  ...        0 min,  0.353 sec
     gradient                   ...        0 min,  0.020 sec
 * total energy  :   -80.0534185 Eh     change       -0.1023236E-01 Eh
   gradient norm :     0.0529114 Eh/α   predicted    -0.7726982E-02 ( -24.48%)
   displ. norm   :     0.3471630 α      lambda       -0.7477599E-02
   maximum displ.:     0.1463454 α      in ANC's #13, #19, #5, ...

........................................................................
.............................. CYCLE    3 ..............................
........................................................................
   1    -81.4460642 -0.814461E+02  0.469E-01    0.40       0.0  T
   2    -80.9072133  0.538851E+00  0.281E+00    0.86       1.0  T
   3    -81.4542711 -0.547058E+00  0.220E-01    0.37       1.0  T
   4    -81.4559878 -0.171675E-02  0.902E-02    0.36       1.0  T
   5    -81.4560528 -0.649582E-04  0.651E-02    0.36       1.0  T
   6    -81.4560155  0.372638E-04  0.704E-02    0.35       1.0  T
   7    -81.4563274 -0.311934E-03  0.114E-02    0.36       1.3  T
   8    -81.4563331 -0.564401E-05  0.366E-03    0.36       4.0  T
   9    -81.4563334 -0.304331E-06  0.175E-03    0.36       8.3  T
  10    -81.4563331  0.279562E-06  0.235E-03    0.36       6.2  T
  11    -81.4563334 -0.341626E-06  0.542E-04    0.36      26.9  T
  12    -81.4563335 -0.300749E-08  0.426E-04    0.36      34.3  T
     SCC iter.                  ...        0 min,  0.365 sec
     gradient                   ...        0 min,  0.019 sec
 * total energy  :   -80.0579268 Eh     change       -0.4508244E-02 Eh
   gradient norm :     0.0226100 Eh/α   predicted    -0.4189407E-02 (  -7.07%)
   displ. norm   :     0.2513130 α      lambda       -0.1421537E-02
   maximum displ.:     0.1162962 α      in ANC's #5, #13, #3, ...

........................................................................
.............................. CYCLE    4 ..............................
........................................................................
   1    -81.4554993 -0.814555E+02  0.111E-01    0.40       0.0  T
   2    -81.4539249  0.157442E-02  0.162E-01    0.38       1.0  T
   3    -81.4462515  0.767335E-02  0.365E-01    0.43       1.0  T
   4    -81.4553929 -0.914136E-02  0.590E-02    0.40       1.0  T
   5    -81.4555551 -0.162221E-03  0.935E-03    0.39       1.6  T
   6    -81.4555562 -0.108555E-05  0.589E-03    0.39       2.5  T
   7    -81.4555578 -0.162013E-05  0.191E-03    0.39       7.6  T
   8    -81.4555579 -0.888325E-07  0.817E-04    0.40      17.9  T
   9    -81.4555579 -0.508111E-08  0.572E-04    0.39      25.5  T
     SCC iter.                  ...        0 min,  0.318 sec
     gradient                   ...        0 min,  0.026 sec
 * total energy  :   -80.0589683 Eh     change       -0.1041526E-02 Eh
   gradient norm :     0.0155790 Eh/α   predicted    -0.7556978E-03 ( -27.44%)
   displ. norm   :     0.3427879 α      lambda       -0.1094242E-02
   maximum displ.:     0.1789065 α      in ANC's #5, #3, #6, ...

........................................................................
.............................. CYCLE    5 ..............................
........................................................................
   1    -81.4529826 -0.814530E+02  0.157E-01    0.43       0.0  T
   2    -81.4050945  0.478880E-01  0.817E-01    0.60       1.0  T
   3    -81.4539137 -0.488192E-01  0.679E-02    0.43       1.0  T
   4    -81.4537804  0.133372E-03  0.666E-02    0.44       1.0  T
   5    -81.4539622 -0.181814E-03  0.160E-02    0.44       1.0  T
   6    -81.4539712 -0.903947E-05  0.105E-02    0.44       1.4  T
   7    -81.4539768 -0.560354E-05  0.434E-03    0.44       3.4  T
   8    -81.4539775 -0.640567E-06  0.150E-03    0.44       9.7  T
   9    -81.4539776 -0.102240E-06  0.599E-04    0.44      24.4  T
  10    -81.4539776 -0.776674E-08  0.354E-04    0.44      41.3  T
     SCC iter.                  ...        0 min,  0.307 sec
     gradient                   ...        0 min,  0.022 sec
 * total energy  :   -80.0597274 Eh     change       -0.7590747E-03 Eh
   gradient norm :     0.0085380 Eh/α   predicted    -0.6114110E-03 ( -19.45%)
   displ. norm   :     0.3168765 α      lambda       -0.5532847E-03
   maximum displ.:     0.1733666 α      in ANC's #5, #3, #6, ...

........................................................................
.............................. CYCLE    6 ..............................
........................................................................
   1    -81.4530429 -0.814530E+02  0.163E-01    0.46       0.0  T
   2    -81.3948165  0.582264E-01  0.896E-01    0.66       1.0  T
   3    -81.4544462 -0.596296E-01  0.502E-02    0.46       1.0  T
   4    -81.4543904  0.557323E-04  0.456E-02    0.47       1.0  T
   5    -81.4544600 -0.696107E-04  0.159E-02    0.47       1.0  T
   6    -81.4544684 -0.836778E-05  0.946E-03    0.46       1.5  T
   7    -81.4544737 -0.533816E-05  0.303E-03    0.47       4.8  T
   8    -81.4544740 -0.273732E-06  0.869E-04    0.47      16.8  T
   9    -81.4544740 -0.177701E-07  0.477E-04    0.47      30.5  T
     SCC iter.                  ...        0 min,  0.293 sec
     gradient                   ...        0 min,  0.017 sec
 * total energy  :   -80.0601468 Eh     change       -0.4194336E-03 Eh
   gradient norm :     0.0076132 Eh/α   predicted    -0.3045036E-03 ( -27.40%)
   displ. norm   :     0.3512510 α      lambda       -0.4652287E-03
   maximum displ.:     0.1848734 α      in ANC's #5, #3, #6, ...

........................................................................
.............................. CYCLE    7 ..............................
........................................................................
   1    -81.4549045 -0.814549E+02  0.167E-01    0.48       0.0  T
   2    -81.3985776  0.563269E-01  0.880E-01    0.68       1.0  T
   3    -81.4562498 -0.576722E-01  0.581E-02    0.49       1.0  T
   4    -81.4562731 -0.233040E-04  0.416E-02    0.49       1.0  T
   5    -81.4563233 -0.502190E-04  0.173E-02    0.49       1.0  T
   6    -81.4563390 -0.156410E-04  0.612E-03    0.49       2.4  T
   7    -81.4563413 -0.233233E-05  0.160E-03    0.49       9.1  T
   8    -81.4563413 -0.213032E-07  0.788E-04    0.49      18.5  T
   9    -81.4563414 -0.137764E-07  0.395E-04    0.49      36.9  T
     SCC iter.                  ...        0 min,  0.310 sec
     gradient                   ...        0 min,  0.017 sec
 * total energy  :   -80.0605086 Eh     change       -0.3618151E-03 Eh
   gradient norm :     0.0077644 Eh/α   predicted    -0.2613141E-03 ( -27.78%)
   displ. norm   :     0.3851946 α      lambda       -0.3999510E-03
   maximum displ.:     0.1922749 α      in ANC's #5, #3, #2, ...

........................................................................
.............................. CYCLE    8 ..............................
........................................................................
   1    -81.4570942 -0.814571E+02  0.154E-01    0.50       0.0  T
   2    -81.4113723  0.457219E-01  0.792E-01    0.66       1.0  T
   3    -81.4579862 -0.466139E-01  0.708E-02    0.50       1.0  T
   4    -81.4581143 -0.128098E-03  0.392E-02    0.51       1.0  T
   5    -81.4581597 -0.454094E-04  0.185E-02    0.51       1.0  T
   6    -81.4581817 -0.219373E-04  0.377E-03    0.51       3.9  T
   7    -81.4581822 -0.534124E-06  0.185E-03    0.51       7.9  T
   8    -81.4581824 -0.134391E-06  0.816E-04    0.51      17.9  T
   9    -81.4581824 -0.246216E-07  0.343E-04    0.51      42.5  T
     SCC iter.                  ...        0 min,  0.338 sec
     gradient                   ...        0 min,  0.016 sec
 * total energy  :   -80.0608150 Eh     change       -0.3064016E-03 Eh
   gradient norm :     0.0072217 Eh/α   predicted    -0.2296472E-03 ( -25.05%)
   displ. norm   :     0.3828039 α      lambda       -0.3095960E-03
   maximum displ.:     0.1767401 α      in ANC's #5, #3, #2, ...

........................................................................
.............................. CYCLE    9 ..............................
........................................................................
   1    -81.4586467 -0.814586E+02  0.120E-01    0.51       0.0  T
   2    -81.4338616  0.247852E-01  0.584E-01    0.61       1.0  T
   3    -81.4588620 -0.250004E-01  0.775E-02    0.51       1.0  T
   4    -81.4590829 -0.220890E-03  0.320E-02    0.52       1.0  T
   5    -81.4591171 -0.342127E-04  0.160E-02    0.52       1.0  T
   6    -81.4591338 -0.166463E-04  0.379E-03    0.52       3.8  T
   7    -81.4591343 -0.534029E-06  0.165E-03    0.52       8.9  T
   8    -81.4591344 -0.124136E-06  0.636E-04    0.52      22.9  T
   9    -81.4591344 -0.167713E-07  0.266E-04    0.52      54.9  T
     SCC iter.                  ...        0 min,  0.313 sec
     gradient                   ...        0 min,  0.019 sec
 * total energy  :   -80.0610530 Eh     change       -0.2379499E-03 Eh
   gradient norm :     0.0065885 Eh/α   predicted    -0.1774822E-03 ( -25.41%)
   displ. norm   :     0.3614945 α      lambda       -0.2551964E-03
   maximum displ.:     0.1796303 α      in ANC's #2, #3, #5, ...

........................................................................
.............................. CYCLE   10 ..............................
........................................................................
   1    -81.4593706 -0.814594E+02  0.901E-02    0.52       0.0  T
   2    -81.4526230  0.674757E-02  0.307E-01    0.55       1.0  T
   3    -81.4590465 -0.642346E-02  0.892E-02    0.51       1.0  T
   4    -81.4594684 -0.421945E-03  0.145E-02    0.52       1.0  T
   5    -81.4594732 -0.478760E-05  0.920E-03    0.52       1.6  T
   6    -81.4594775 -0.428262E-05  0.425E-03    0.52       3.4  T
   7    -81.4594784 -0.972615E-06  0.125E-03    0.52      11.7  T
   8    -81.4594785 -0.761475E-07  0.388E-04    0.52      37.6  T
   9    -81.4594785 -0.534837E-08  0.168E-04    0.52      86.8  T
     SCC iter.                  ...        0 min,  0.252 sec
     gradient                   ...        0 min,  0.016 sec
 * total energy  :   -80.0612529 Eh     change       -0.1999058E-03 Eh
   gradient norm :     0.0060277 Eh/α   predicted    -0.1442747E-03 ( -27.83%)
   displ. norm   :     0.3515229 α      lambda       -0.2352172E-03
   maximum displ.:     0.1943999 α      in ANC's #2, #3, #4, ...

........................................................................
.............................. CYCLE   11 ..............................
........................................................................
   1    -81.4592909 -0.814593E+02  0.816E-02    0.51       0.0  T
   2    -81.4592860  0.491007E-05  0.488E-02    0.51       1.0  T
   3    -81.4572982  0.198775E-02  0.166E-01    0.53       1.0  T
   4    -81.4591658 -0.186753E-02  0.425E-02    0.51       1.0  T
   5    -81.4592939 -0.128151E-03  0.352E-03    0.51       4.1  T
   6    -81.4592939  0.311801E-07  0.271E-03    0.51       5.4  T
   7    -81.4592943 -0.416710E-06  0.703E-04    0.51      20.8  T
   8    -81.4592943 -0.142315E-07  0.256E-04    0.51      56.9  T
     SCC iter.                  ...        0 min,  0.231 sec
     gradient                   ...        0 min,  0.019 sec
 * total energy  :   -80.0614379 Eh     change       -0.1850512E-03 Eh
   gradient norm :     0.0053069 Eh/α   predicted    -0.1321419E-03 ( -28.59%)
   displ. norm   :     0.3497506 α      lambda       -0.2145400E-03
   maximum displ.:     0.2093009 α      in ANC's #2, #3, #4, ...

........................................................................
.............................. CYCLE   12 ..............................
........................................................................
   1    -81.4586414 -0.814586E+02  0.860E-02    0.51       0.0  T
   2    -81.4557331  0.290826E-02  0.205E-01    0.49       1.0  T
   3    -81.4574796 -0.174649E-02  0.136E-01    0.52       1.0  T
   4    -81.4586426 -0.116296E-02  0.284E-02    0.50       1.0  T
   5    -81.4586804 -0.378567E-04  0.526E-03    0.50       2.8  T
   6    -81.4586796  0.801249E-06  0.534E-03    0.50       2.7  T
   7    -81.4586811 -0.147416E-05  0.205E-03    0.50       7.1  T
   8    -81.4586813 -0.183902E-06  0.533E-04    0.50      27.4  T
   9    -81.4586813 -0.658814E-08  0.363E-04    0.50      40.2  T
     SCC iter.                  ...        0 min,  0.266 sec
     gradient                   ...        0 min,  0.028 sec
 * total energy  :   -80.0616065 Eh     change       -0.1686101E-03 Eh
   gradient norm :     0.0045083 Eh/α   predicted    -0.1203935E-03 ( -28.60%)
   displ. norm   :     0.3497910 α      lambda       -0.1960361E-03
   maximum displ.:     0.2163946 α      in ANC's #2, #3, #4, ...

........................................................................
.............................. CYCLE   13 ..............................
........................................................................
   1    -81.4581423 -0.814581E+02  0.858E-02    0.50       0.0  T
   2    -81.4552706  0.287175E-02  0.204E-01    0.48       1.0  T
   3    -81.4568693 -0.159867E-02  0.142E-01    0.51       1.0  T
   4    -81.4581407 -0.127145E-02  0.291E-02    0.49       1.0  T
   5    -81.4581799 -0.392332E-04  0.535E-03    0.50       2.7  T
   6    -81.4581791  0.819611E-06  0.548E-03    0.50       2.7  T
   7    -81.4581806 -0.144595E-05  0.231E-03    0.50       6.3  T
   8    -81.4581808 -0.273010E-06  0.482E-04    0.50      30.3  T
   9    -81.4581808 -0.175488E-08  0.367E-04    0.50      39.8  T
     SCC iter.                  ...        0 min,  0.281 sec
     gradient                   ...        0 min,  0.027 sec
 * total energy  :   -80.0617647 Eh     change       -0.1581875E-03 Eh
   gradient norm :     0.0044728 Eh/α   predicted    -0.1100147E-03 ( -30.45%)
   displ. norm   :     0.3996980 α      lambda       -0.2183284E-03
   maximum displ.:     0.2434568 α      in ANC's #2, #4, #3, ...

........................................................................
.............................. CYCLE   14 ..............................
........................................................................
   1    -81.4577037 -0.814577E+02  0.933E-02    0.49       0.0  T
   2    -81.4576995  0.412499E-05  0.562E-02    0.49       1.0  T
   3    -81.4553241  0.237541E-02  0.181E-01    0.48       1.0  T
   4    -81.4574721 -0.214797E-02  0.587E-02    0.49       1.0  T
   5    -81.4577080 -0.235941E-03  0.440E-03    0.49       3.3  T
   6    -81.4577080  0.141999E-07  0.370E-03    0.49       3.9  T
   7    -81.4577088 -0.778919E-06  0.949E-04    0.49      15.4  T
   8    -81.4577089 -0.379872E-07  0.379E-04    0.49      38.5  T
     SCC iter.                  ...        0 min,  0.252 sec
     gradient                   ...        0 min,  0.017 sec
 * total energy  :   -80.0619492 Eh     change       -0.1844863E-03 Eh
   gradient norm :     0.0058864 Eh/α   predicted    -0.1266063E-03 ( -31.37%)
   displ. norm   :     0.5074906 α      lambda       -0.2947644E-03
   maximum displ.:     0.2985767 α      in ANC's #2, #4, #3, ...

........................................................................
.............................. CYCLE   15 ..............................
........................................................................
   1    -81.4571062 -0.814571E+02  0.124E-01    0.49       0.0  T
   2    -81.4495584  0.754780E-02  0.329E-01    0.53       1.0  T
   3    -81.4558727 -0.631429E-02  0.149E-01    0.48       1.0  T
   4    -81.4571954 -0.132277E-02  0.184E-02    0.49       1.0  T
   5    -81.4572011 -0.566237E-05  0.127E-02    0.49       1.1  T
   6    -81.4572052 -0.410501E-05  0.865E-03    0.49       1.7  T
   7    -81.4572100 -0.485563E-05  0.171E-03    0.49       8.5  T
   8    -81.4572102 -0.127969E-06  0.473E-04    0.49      30.8  T
   9    -81.4572102  0.343832E-08  0.409E-04    0.49      35.7  T
     SCC iter.                  ...        0 min,  0.253 sec
     gradient                   ...        0 min,  0.017 sec
 * total energy  :   -80.0622075 Eh     change       -0.2583494E-03 Eh
   gradient norm :     0.0079286 Eh/α   predicted    -0.1853416E-03 ( -28.26%)
   displ. norm   :     0.6100117 α      lambda       -0.4046462E-03
   maximum displ.:     0.3432559 α      in ANC's #2, #4, #3, ...

........................................................................
.............................. CYCLE   16 ..............................
........................................................................
   1    -81.4565016 -0.814565E+02  0.164E-01    0.49       0.0  T
   2    -81.4293587  0.271429E-01  0.614E-01    0.59       1.0  T
   3    -81.4561670 -0.268083E-01  0.129E-01    0.49       1.0  T
   4    -81.4569050 -0.738074E-03  0.308E-02    0.50       1.0  T
   5    -81.4569213 -0.162422E-04  0.232E-02    0.50       1.0  T
   6    -81.4569526 -0.312752E-04  0.733E-03    0.50       2.0  T
   7    -81.4569556 -0.307373E-05  0.174E-03    0.50       8.4  T
   8    -81.4569558 -0.128201E-06  0.646E-04    0.50      22.6  T
   9    -81.4569558 -0.174421E-08  0.402E-04    0.50      36.3  T
     SCC iter.                  ...        0 min,  0.246 sec
     gradient                   ...        0 min,  0.019 sec
 * total energy  :   -80.0625698 Eh     change       -0.3623031E-03 Eh
   gradient norm :     0.0096566 Eh/α   predicted    -0.2776131E-03 ( -23.38%)
   displ. norm   :     0.6147732 α      lambda       -0.5111721E-03
   maximum displ.:     0.3459487 α      in ANC's #4, #2, #5, ...

........................................................................
.............................. CYCLE   17 ..............................
........................................................................
   1    -81.4577957 -0.814578E+02  0.179E-01    0.51       0.0  T
   2    -81.4185798  0.392159E-01  0.735E-01    0.63       1.0  T
   3    -81.4578673 -0.392875E-01  0.125E-01    0.51       1.0  T
   4    -81.4584415 -0.574212E-03  0.462E-02    0.52       1.0  T
   5    -81.4585048 -0.632629E-04  0.280E-02    0.52       1.0  T
   6    -81.4585543 -0.495769E-04  0.543E-03    0.51       2.7  T
   7    -81.4585554 -0.110155E-05  0.213E-03    0.51       6.9  T
   8    -81.4585556 -0.210146E-06  0.913E-04    0.51      16.0  T
   9    -81.4585557 -0.228101E-07  0.442E-04    0.51      33.0  T
     SCC iter.                  ...        0 min,  0.264 sec
     gradient                   ...        0 min,  0.017 sec
 * total energy  :   -80.0630248 Eh     change       -0.4549093E-03 Eh
   gradient norm :     0.0097720 Eh/α   predicted    -0.3521848E-03 ( -22.58%)
   displ. norm   :     0.6468695 α      lambda       -0.6066147E-03
   maximum displ.:     0.3868350 α      in ANC's #4, #2, #5, ...

........................................................................
.............................. CYCLE   18 ..............................
........................................................................
   1    -81.4579763 -0.814580E+02  0.185E-01    0.52       0.0  T
   2    -81.4200559  0.379204E-01  0.723E-01    0.65       1.0  T
   3    -81.4578780 -0.378221E-01  0.136E-01    0.52       1.0  T
   4    -81.4585950 -0.716982E-03  0.550E-02    0.54       1.0  T
   5    -81.4586909 -0.959593E-04  0.300E-02    0.53       1.0  T
   6    -81.4587465 -0.555890E-04  0.792E-03    0.53       1.8  T
   7    -81.4587494 -0.291274E-05  0.222E-03    0.53       6.6  T
   8    -81.4587496 -0.187229E-06  0.108E-03    0.53      13.5  T
   9    -81.4587497 -0.368932E-07  0.508E-04    0.53      28.7  T
  10    -81.4587497 -0.383469E-08  0.252E-04    0.53      57.9  T
     SCC iter.                  ...        0 min,  0.262 sec
     gradient                   ...        0 min,  0.019 sec
 * total energy  :   -80.0635653 Eh     change       -0.5405366E-03 Eh
   gradient norm :     0.0093860 Eh/α   predicted    -0.4302272E-03 ( -20.41%)
   displ. norm   :     0.6070375 α      lambda       -0.7713225E-03
   maximum displ.:     0.3709071 α      in ANC's #4, #5, #2, ...

........................................................................
.............................. CYCLE   19 ..............................
........................................................................
   1    -81.4681352 -0.814681E+02  0.166E-01    0.54       0.0  T
   2    -81.4494222  0.187130E-01  0.512E-01    0.61       1.0  T
   3    -81.4665674 -0.171451E-01  0.180E-01    0.54       1.0  T
   4    -81.4683519 -0.178456E-02  0.554E-02    0.55       1.0  T
   5    -81.4684524 -0.100459E-03  0.290E-02    0.55       1.0  T
   6    -81.4685018 -0.494647E-04  0.102E-02    0.55       1.4  T
   7    -81.4685060 -0.411160E-05  0.427E-03    0.55       3.4  T
   8    -81.4685069 -0.975874E-06  0.141E-03    0.55      10.3  T
   9    -81.4685070 -0.718486E-07  0.624E-04    0.55      23.4  T
  10    -81.4685070 -0.481835E-08  0.353E-04    0.55      41.3  T
     SCC iter.                  ...        0 min,  0.261 sec
     gradient                   ...        0 min,  0.016 sec
 * total energy  :   -80.0641124 Eh     change       -0.5471104E-03 Eh
   gradient norm :     0.0119526 Eh/α   predicted    -0.5277775E-03 (  -3.53%)
   displ. norm   :     0.7386625 α      lambda       -0.8431280E-03
   maximum displ.:     0.4546828 α      in ANC's #4, #2, #5, ...

........................................................................
.............................. CYCLE   20 ..............................
........................................................................
   1    -81.4601416 -0.814601E+02  0.184E-01    0.56       0.0  T
   2    -81.4499413  0.102003E-01  0.389E-01    0.60       1.0  T
   3    -81.4559792 -0.603796E-02  0.258E-01    0.55       1.0  T
   4    -81.4601653 -0.418610E-02  0.593E-02    0.57       1.0  T
   5    -81.4602969 -0.131590E-03  0.284E-02    0.56       1.0  T
   6    -81.4603369 -0.399751E-04  0.134E-02    0.56       1.1  T
   7    -81.4603443 -0.741008E-05  0.616E-03    0.56       2.4  T
   8    -81.4603467 -0.241778E-05  0.124E-03    0.56      11.8  T
   9    -81.4603468 -0.398926E-07  0.697E-04    0.56      20.9  T
  10    -81.4603468 -0.586265E-08  0.411E-04    0.56      35.5  T
     SCC iter.                  ...        0 min,  0.275 sec
     gradient                   ...        0 min,  0.077 sec
 * total energy  :   -80.0647404 Eh     change       -0.6279885E-03 Eh
   gradient norm :     0.0128314 Eh/α   predicted    -0.6515856E-03 (   3.76%)
   displ. norm   :     0.5487995 α      lambda       -0.6526378E-03
   maximum displ.:     0.3396135 α      in ANC's #4, #5, #2, ...
 * RMSD in coord.:     1.0171235 α      energy gain  -0.2155429E-01 Eh

generating ANC from model Hessian ...
Using Lindh-Hessian (1995)
 Shifting diagonal of input Hessian by    9.9166400505053716E-003
 Lowest  eigenvalues of input Hessian
    0.000000    0.000000    0.000000    0.000000    0.000000    0.000000
    0.010000    0.010158    0.010403    0.010630    0.010851    0.010964
    0.011247    0.013040    0.013550    0.014394    0.015301    0.017400
 Highest eigenvalues
    2.039671    2.067223    2.079179    2.104904    2.111680    2.465646


........................................................................
.............................. CYCLE   21 ..............................
........................................................................
   1    -81.4609763 -0.814610E+02  0.136E-01    0.57       0.0  T
   2    -81.4602930  0.683290E-03  0.121E-01    0.56       1.0  T
   3    -81.4482933  0.119997E-01  0.418E-01    0.62       1.0  T
   4    -81.4609635 -0.126702E-01  0.265E-02    0.57       1.0  T
   5    -81.4609817 -0.182108E-04  0.158E-02    0.57       1.0  T
   6    -81.4609947 -0.130681E-04  0.572E-03    0.57       2.6  T
   7    -81.4609960 -0.123948E-05  0.188E-03    0.57       7.8  T
   8    -81.4609961 -0.165772E-06  0.719E-04    0.57      20.3  T
   9    -81.4609961 -0.978142E-08  0.412E-04    0.57      35.4  T
     SCC iter.                  ...        0 min,  0.260 sec
     gradient                   ...        0 min,  0.023 sec
 * total energy  :   -80.0652434 Eh     change       -0.5030554E-03 Eh
   gradient norm :     0.0117045 Eh/α   predicted     0.0000000E+00 (-100.00%)
   displ. norm   :     0.1160974 α      lambda       -0.4363726E-03
   maximum displ.:     0.0741652 α      in ANC's #4, #7, #2, ...

........................................................................
.............................. CYCLE   22 ..............................
........................................................................
   1    -81.4660040 -0.814660E+02  0.530E-02    0.57       0.0  T
   2    -81.4658103  0.193752E-03  0.590E-02    0.56       1.0  T
   3    -81.4644887  0.132158E-02  0.146E-01    0.58       1.0  T
   4    -81.4659931 -0.150434E-02  0.183E-02    0.57       1.0  T
   5    -81.4660089 -0.158505E-04  0.457E-03    0.57       3.2  T
   6    -81.4660093 -0.429546E-06  0.300E-03    0.57       4.9  T
   7    -81.4660099 -0.549114E-06  0.481E-04    0.57      30.4  T
   8    -81.4660099 -0.590967E-08  0.215E-04    0.57      67.8  T
     SCC iter.                  ...        0 min,  0.236 sec
     gradient                   ...        0 min,  0.017 sec
 * total energy  :   -80.0655502 Eh     change       -0.3067268E-03 Eh
   gradient norm :     0.0061786 Eh/α   predicted    -0.2211290E-03 ( -27.91%)
   displ. norm   :     0.2007127 α      lambda       -0.3351220E-03
   maximum displ.:     0.1419485 α      in ANC's #4, #7, #2, ...

........................................................................
.............................. CYCLE   23 ..............................
........................................................................
   1    -81.4694259 -0.814694E+02  0.733E-02    0.56       0.0  T
   2    -81.4669610  0.246496E-02  0.185E-01    0.55       1.0  T
   3    -81.4685914 -0.163046E-02  0.116E-01    0.57       1.0  T
   4    -81.4694341 -0.842698E-03  0.239E-02    0.56       1.0  T
   5    -81.4694617 -0.275852E-04  0.690E-03    0.56       2.1  T
   6    -81.4694618 -0.325178E-07  0.561E-03    0.56       2.6  T
   7    -81.4694637 -0.198067E-05  0.995E-04    0.56      14.7  T
   8    -81.4694638 -0.439204E-07  0.387E-04    0.56      37.7  T
   9    -81.4694638  0.946585E-09  0.328E-04    0.56      44.5  T
     SCC iter.                  ...        0 min,  0.269 sec
     gradient                   ...        0 min,  0.018 sec
 * total energy  :   -80.0658018 Eh     change       -0.2516540E-03 Eh
   gradient norm :     0.0035718 Eh/α   predicted    -0.1743114E-03 ( -30.73%)
   displ. norm   :     0.2736830 α      lambda       -0.2948660E-03
   maximum displ.:     0.1912553 α      in ANC's #4, #7, #2, ...

........................................................................
.............................. CYCLE   24 ..............................
........................................................................
   1    -81.4690515 -0.814691E+02  0.100E-01    0.55       0.0  T
   2    -81.4568970  0.121546E-01  0.407E-01    0.53       1.0  T
   3    -81.4684192 -0.115222E-01  0.115E-01    0.56       1.0  T
   4    -81.4691659 -0.746757E-03  0.279E-02    0.55       1.0  T
   5    -81.4692021 -0.361662E-04  0.948E-03    0.55       1.5  T
   6    -81.4692002  0.187408E-05  0.912E-03    0.55       1.6  T
   7    -81.4692053 -0.510271E-05  0.245E-03    0.55       5.9  T
   8    -81.4692056 -0.307739E-06  0.833E-04    0.55      17.5  T
   9    -81.4692056  0.642231E-09  0.721E-04    0.55      20.2  T
     SCC iter.                  ...        0 min,  0.261 sec
     gradient                   ...        0 min,  0.017 sec
 * total energy  :   -80.0660459 Eh     change       -0.2440796E-03 Eh
   gradient norm :     0.0053054 Eh/α   predicted    -0.1584760E-03 ( -35.07%)
   displ. norm   :     0.3213622 α      lambda       -0.2957635E-03
   maximum displ.:     0.2209001 α      in ANC's #4, #7, #2, ...

........................................................................
.............................. CYCLE   25 ..............................
........................................................................
   1    -81.4666547 -0.814667E+02  0.104E-01    0.54       0.0  T
   2    -81.4590454  0.760931E-02  0.324E-01    0.52       1.0  T
   3    -81.4655532 -0.650773E-02  0.139E-01    0.55       1.0  T
   4    -81.4667283 -0.117512E-02  0.211E-02    0.54       1.0  T
   5    -81.4667462 -0.179437E-04  0.946E-03    0.54       1.5  T
   6    -81.4667449  0.127596E-05  0.850E-03    0.54       1.7  T
   7    -81.4667495 -0.452917E-05  0.219E-03    0.54       6.7  T
   8    -81.4667497 -0.239941E-06  0.741E-04    0.54      19.7  T
   9    -81.4667497  0.451901E-08  0.669E-04    0.54      21.8  T
     SCC iter.                  ...        0 min,  0.243 sec
     gradient                   ...        0 min,  0.017 sec
 * total energy  :   -80.0662995 Eh     change       -0.2535420E-03 Eh
   gradient norm :     0.0061474 Eh/α   predicted    -0.1631542E-03 ( -35.65%)
   displ. norm   :     0.3444105 α      lambda       -0.2889931E-03
   maximum displ.:     0.2345493 α      in ANC's #4, #7, #2, ...

........................................................................
.............................. CYCLE   26 ..............................
........................................................................
   1    -81.4643713 -0.814644E+02  0.992E-02    0.53       0.0  T
   2    -81.4636512  0.720105E-03  0.112E-01    0.52       1.0  T
   3    -81.4586269  0.502435E-02  0.282E-01    0.56       1.0  T
   4    -81.4643779 -0.575101E-02  0.124E-02    0.53       1.2  T
   5    -81.4643794 -0.149564E-05  0.898E-03    0.53       1.6  T
   6    -81.4643813 -0.193838E-05  0.542E-03    0.53       2.7  T
   7    -81.4643832 -0.186456E-05  0.110E-03    0.53      13.3  T
   8    -81.4643832 -0.407225E-07  0.498E-04    0.53      29.3  T
   9    -81.4643832 -0.226105E-08  0.366E-04    0.53      39.9  T
     SCC iter.                  ...        0 min,  0.255 sec
     gradient                   ...        0 min,  0.019 sec
 * total energy  :   -80.0665480 Eh     change       -0.2485124E-03 Eh
   gradient norm :     0.0059884 Eh/α   predicted    -0.1616374E-03 ( -34.96%)
   displ. norm   :     0.3697579 α      lambda       -0.2878505E-03
   maximum displ.:     0.2500684 α      in ANC's #4, #7, #2, ...

........................................................................
.............................. CYCLE   27 ..............................
........................................................................
   1    -81.4631126 -0.814631E+02  0.107E-01    0.53       0.0  T
   2    -81.4588109  0.430172E-02  0.249E-01    0.55       1.0  T
   3    -81.4615524 -0.274148E-02  0.157E-01    0.52       1.0  T
   4    -81.4631656 -0.161324E-02  0.165E-02    0.53       1.0  T
   5    -81.4631691 -0.347327E-05  0.122E-02    0.53       1.2  T
   6    -81.4631766 -0.747657E-05  0.452E-03    0.53       3.2  T
   7    -81.4631775 -0.937901E-06  0.165E-03    0.53       8.8  T
   8    -81.4631777 -0.154552E-06  0.536E-04    0.53      27.2  T
   9    -81.4631777 -0.290456E-08  0.380E-04    0.53      38.4  T
     SCC iter.                  ...        0 min,  0.253 sec
     gradient                   ...        0 min,  0.018 sec
 * total energy  :   -80.0667932 Eh     change       -0.2452400E-03 Eh
   gradient norm :     0.0056786 Eh/α   predicted    -0.1636031E-03 ( -33.29%)
   displ. norm   :     0.4042244 α      lambda       -0.2928009E-03
   maximum displ.:     0.2770838 α      in ANC's #4, #7, #2, ...

........................................................................
.............................. CYCLE   28 ..............................
........................................................................
   1    -81.4630591 -0.814631E+02  0.133E-01    0.53       0.0  T
   2    -81.4432780  0.197811E-01  0.522E-01    0.60       1.0  T
   3    -81.4627412 -0.194632E-01  0.112E-01    0.53       1.0  T
   4    -81.4633639 -0.622666E-03  0.284E-02    0.54       1.0  T
   5    -81.4633838 -0.199753E-04  0.184E-02    0.54       1.0  T
   6    -81.4634039 -0.200332E-04  0.476E-03    0.54       3.1  T
   7    -81.4634048 -0.880729E-06  0.187E-03    0.54       7.8  T
   8    -81.4634050 -0.193422E-06  0.586E-04    0.54      24.9  T
   9    -81.4634050 -0.753566E-08  0.335E-04    0.54      43.5  T
     SCC iter.                  ...        0 min,  0.292 sec
     gradient                   ...        0 min,  0.024 sec
 * total energy  :   -80.0670368 Eh     change       -0.2435921E-03 Eh
   gradient norm :     0.0054588 Eh/α   predicted    -0.1703253E-03 ( -30.08%)
   displ. norm   :     0.4366290 α      lambda       -0.2829478E-03
   maximum displ.:     0.3057620 α      in ANC's #4, #2, #7, ...

........................................................................
.............................. CYCLE   29 ..............................
........................................................................
   1    -81.4640181 -0.814640E+02  0.162E-01    0.54       0.0  T
   2    -81.4258349  0.381832E-01  0.723E-01    0.66       1.0  T
   3    -81.4642806 -0.384457E-01  0.107E-01    0.54       1.0  T
   4    -81.4647334 -0.452785E-03  0.389E-02    0.55       1.0  T
   5    -81.4647780 -0.445872E-04  0.231E-02    0.55       1.0  T
   6    -81.4648110 -0.330242E-04  0.446E-03    0.55       3.3  T
   7    -81.4648114 -0.365453E-06  0.253E-03    0.55       5.8  T
   8    -81.4648117 -0.377773E-06  0.671E-04    0.55      21.7  T
   9    -81.4648117 -0.937987E-08  0.377E-04    0.55      38.7  T
     SCC iter.                  ...        0 min,  0.401 sec
     gradient                   ...        0 min,  0.017 sec
 * total energy  :   -80.0672646 Eh     change       -0.2278044E-03 Eh
   gradient norm :     0.0054201 Eh/α   predicted    -0.1684465E-03 ( -26.06%)
   displ. norm   :     0.4394378 α      lambda       -0.2430028E-03
   maximum displ.:     0.3164349 α      in ANC's #4, #2, #3, ...

........................................................................
.............................. CYCLE   30 ..............................
........................................................................
   1    -81.4660938 -0.814661E+02  0.168E-01    0.55       0.0  T
   2    -81.4231588  0.429350E-01  0.767E-01    0.68       1.0  T
   3    -81.4666082 -0.434494E-01  0.996E-02    0.55       1.0  T
   4    -81.4669518 -0.343610E-03  0.415E-02    0.56       1.0  T
   5    -81.4670059 -0.540725E-04  0.229E-02    0.56       1.0  T
   6    -81.4670382 -0.322594E-04  0.438E-03    0.56       3.3  T
   7    -81.4670384 -0.225694E-06  0.270E-03    0.56       5.4  T
   8    -81.4670388 -0.429593E-06  0.685E-04    0.56      21.3  T
   9    -81.4670388 -0.958495E-08  0.383E-04    0.56      38.1  T
     SCC iter.                  ...        0 min,  0.291 sec
     gradient                   ...        0 min,  0.045 sec
 * total energy  :   -80.0674546 Eh     change       -0.1900092E-03 Eh
   gradient norm :     0.0050232 Eh/α   predicted    -0.1449655E-03 ( -23.71%)
   displ. norm   :     0.4075783 α      lambda       -0.1823827E-03
   maximum displ.:     0.3008657 α      in ANC's #4, #2, #3, ...

........................................................................
.............................. CYCLE   31 ..............................
........................................................................
   1    -81.4686032 -0.814686E+02  0.145E-01    0.56       0.0  T
   2    -81.4383213  0.302819E-01  0.647E-01    0.66       1.0  T
   3    -81.4688466 -0.305252E-01  0.917E-02    0.56       1.0  T
   4    -81.4691499 -0.303349E-03  0.377E-02    0.57       1.0  T
   5    -81.4691995 -0.495359E-04  0.190E-02    0.57       1.0  T
   6    -81.4692212 -0.217321E-04  0.413E-03    0.57       3.5  T
   7    -81.4692214 -0.207566E-06  0.252E-03    0.57       5.8  T
   8    -81.4692218 -0.384751E-06  0.572E-04    0.57      25.5  T
   9    -81.4692218 -0.655615E-08  0.327E-04    0.57      44.5  T
     SCC iter.                  ...        0 min,  0.296 sec
     gradient                   ...        0 min,  0.016 sec
 * total energy  :   -80.0675951 Eh     change       -0.1404935E-03 Eh
   gradient norm :     0.0042703 Eh/α   predicted    -0.1063402E-03 ( -24.31%)
   displ. norm   :     0.3562457 α      lambda       -0.1264284E-03
   maximum displ.:     0.2688836 α      in ANC's #4, #2, #3, ...

........................................................................
.............................. CYCLE   32 ..............................
........................................................................
   1    -81.4706672 -0.814707E+02  0.107E-01    0.57       0.0  T
   2    -81.4596056  0.110616E-01  0.394E-01    0.62       1.0  T
   3    -81.4704750 -0.108694E-01  0.875E-02    0.57       1.0  T
   4    -81.4708236 -0.348653E-03  0.294E-02    0.58       1.0  T
   5    -81.4708562 -0.325620E-04  0.132E-02    0.58       1.1  T
   6    -81.4708662 -0.997885E-05  0.341E-03    0.58       4.3  T
   7    -81.4708664 -0.256770E-06  0.165E-03    0.58       8.9  T
   8    -81.4708666 -0.154681E-06  0.442E-04    0.58      33.0  T
   9    -81.4708666 -0.435861E-08  0.240E-04    0.58      60.8  T
     SCC iter.                  ...        0 min,  0.263 sec
     gradient                   ...        0 min,  0.018 sec
 * total energy  :   -80.0676922 Eh     change       -0.9709561E-04 Eh
   gradient norm :     0.0033276 Eh/α   predicted    -0.7123785E-04 ( -26.63%)
   displ. norm   :     0.3052104 α      lambda       -0.8422713E-04
   maximum displ.:     0.2335176 α      in ANC's #4, #2, #3, ...

........................................................................
.............................. CYCLE   33 ..............................
........................................................................
   1    -81.4714098 -0.814714E+02  0.795E-02    0.58       0.0  T
   2    -81.4704945  0.915331E-03  0.122E-01    0.59       1.0  T
   3    -81.4696688  0.825704E-03  0.159E-01    0.57       1.0  T
   4    -81.4714065 -0.173775E-02  0.203E-02    0.58       1.0  T
   5    -81.4714240 -0.174834E-04  0.807E-03    0.58       1.8  T
   6    -81.4714272 -0.320847E-05  0.247E-03    0.58       5.9  T
   7    -81.4714274 -0.161956E-06  0.114E-03    0.58      12.8  T
   8    -81.4714275 -0.770558E-07  0.323E-04    0.58      45.1  T
   9    -81.4714275 -0.212231E-08  0.183E-04    0.58      79.7  T
     SCC iter.                  ...        0 min,  0.264 sec
     gradient                   ...        0 min,  0.021 sec
 * total energy  :   -80.0677562 Eh     change       -0.6399352E-04 Eh
   gradient norm :     0.0023498 Eh/α   predicted    -0.4603950E-04 ( -28.06%)
   displ. norm   :     0.2208673 α      lambda       -0.5111772E-04
   maximum displ.:     0.1688500 α      in ANC's #4, #2, #3, ...

........................................................................
.............................. CYCLE   34 ..............................
........................................................................
   1    -81.4722781 -0.814723E+02  0.562E-02    0.58       0.0  T
   2    -81.4715306  0.747486E-03  0.105E-01    0.57       1.0  T
   3    -81.4715930 -0.623467E-04  0.102E-01    0.59       1.0  T
   4    -81.4722871 -0.694168E-03  0.824E-03    0.58       1.8  T
   5    -81.4722890 -0.183290E-05  0.452E-03    0.58       3.2  T
   6    -81.4722899 -0.906019E-06  0.143E-03    0.58      10.2  T
   7    -81.4722899 -0.760531E-07  0.514E-04    0.58      28.4  T
   8    -81.4722899 -0.126171E-07  0.204E-04    0.58      71.4  T
     SCC iter.                  ...        0 min,  0.247 sec
     gradient                   ...        0 min,  0.019 sec
 * total energy  :   -80.0677937 Eh     change       -0.3750182E-04 Eh
   gradient norm :     0.0020082 Eh/α   predicted    -0.2680788E-04 ( -28.52%)
   displ. norm   :     0.2031426 α      lambda       -0.3461335E-04
   maximum displ.:     0.1585652 α      in ANC's #4, #2, #6, ...

........................................................................
.............................. CYCLE   35 ..............................
........................................................................
   1    -81.4711957 -0.814712E+02  0.559E-02    0.58       0.0  T
   2    -81.4695445  0.165119E-02  0.153E-01    0.57       1.0  T
   3    -81.4708685 -0.132398E-02  0.753E-02    0.59       1.0  T
   4    -81.4712196 -0.351170E-03  0.440E-03    0.58       3.3  T
   5    -81.4712196  0.646561E-07  0.308E-03    0.58       4.7  T
   6    -81.4712200 -0.386178E-06  0.107E-03    0.58      13.6  T
   7    -81.4712200 -0.507283E-07  0.440E-04    0.58      33.1  T
   8    -81.4712200 -0.106995E-07  0.152E-04    0.58      95.9  T
     SCC iter.                  ...        0 min,  0.236 sec
     gradient                   ...        0 min,  0.018 sec
 * total energy  :   -80.0678157 Eh     change       -0.2202226E-04 Eh
   gradient norm :     0.0019974 Eh/α   predicted    -0.1802156E-04 ( -18.17%)
   displ. norm   :     0.2342701 α      lambda       -0.2528767E-04
   maximum displ.:     0.1723951 α      in ANC's #4, #2, #6, ...

........................................................................
.............................. CYCLE   36 ..............................
........................................................................
   1    -81.4724097 -0.814724E+02  0.636E-02    0.58       0.0  T
   2    -81.4682038  0.420583E-02  0.242E-01    0.57       1.0  T
   3    -81.4722506 -0.404678E-02  0.633E-02    0.58       1.0  T
   4    -81.4724681 -0.217516E-03  0.665E-03    0.58       2.2  T
   5    -81.4724693 -0.111600E-05  0.351E-03    0.58       4.2  T
   6    -81.4724695 -0.254518E-06  0.195E-03    0.58       7.5  T
   7    -81.4724697 -0.189375E-06  0.695E-04    0.58      21.0  T
   8    -81.4724697 -0.139518E-07  0.352E-04    0.58      41.4  T
     SCC iter.                  ...        0 min,  0.254 sec
     gradient                   ...        0 min,  0.019 sec
 * total energy  :   -80.0678300 Eh     change       -0.1424083E-04 Eh
   gradient norm :     0.0032937 Eh/α   predicted    -0.1295314E-04 (  -9.04%)
   displ. norm   :     0.0316806 α      lambda       -0.1446447E-04
   maximum displ.:     0.0183726 α      in ANC's #4, #7, #2, ...

........................................................................
.............................. CYCLE   37 ..............................
........................................................................
   1    -81.4721532 -0.814722E+02  0.102E-02    0.58       0.0  T
   2    -81.4721283  0.248921E-04  0.192E-02    0.58       1.0  T
   3    -81.4721324 -0.404802E-05  0.180E-02    0.58       1.0  T
   4    -81.4721534 -0.210453E-04  0.228E-03    0.58       6.4  T
   5    -81.4721537 -0.270244E-06  0.548E-04    0.58      26.6  T
   6    -81.4721537 -0.549903E-08  0.301E-04    0.58      48.4  T
     SCC iter.                  ...        0 min,  0.220 sec
     gradient                   ...        0 min,  0.018 sec
 * total energy  :   -80.0678415 Eh     change       -0.1154991E-04 Eh
   gradient norm :     0.0021017 Eh/α   predicted    -0.7241658E-05 ( -37.30%)
   displ. norm   :     0.0812211 α      lambda       -0.3083979E-04
   maximum displ.:     0.0487281 α      in ANC's #7, #3, #9, ...

........................................................................
.............................. CYCLE   38 ..............................
........................................................................
   1    -81.4714211 -0.814714E+02  0.298E-02    0.58       0.0  T
   2    -81.4702639  0.115722E-02  0.126E-01    0.59       1.0  T
   3    -81.4713917 -0.112775E-02  0.295E-02    0.58       1.0  T
   4    -81.4714383 -0.466256E-04  0.527E-03    0.58       2.8  T
   5    -81.4714395 -0.118431E-05  0.119E-03    0.58      12.3  T
   6    -81.4714395 -0.223510E-08  0.948E-04    0.58      15.4  T
   7    -81.4714395 -0.515221E-07  0.308E-04    0.58      47.4  T
     SCC iter.                  ...        0 min,  0.226 sec
     gradient                   ...        0 min,  0.019 sec
 * total energy  :   -80.0678619 Eh     change       -0.2034427E-04 Eh
   gradient norm :     0.0015607 Eh/α   predicted    -0.1552300E-04 ( -23.70%)
   displ. norm   :     0.1450795 α      lambda       -0.1872000E-04
   maximum displ.:     0.1018682 α      in ANC's #7, #3, #9, ...

........................................................................
.............................. CYCLE   39 ..............................
........................................................................
   1    -81.4717115 -0.814717E+02  0.431E-02    0.58       0.0  T
   2    -81.4710835  0.628024E-03  0.950E-02    0.58       1.0  T
   3    -81.4714007 -0.317219E-03  0.705E-02    0.57       1.0  T
   4    -81.4717195 -0.318816E-03  0.711E-03    0.58       2.1  T
   5    -81.4717217 -0.213982E-05  0.205E-03    0.58       7.1  T
   6    -81.4717217 -0.596921E-07  0.130E-03    0.58      11.2  T
   7    -81.4717218 -0.881069E-07  0.371E-04    0.58      39.3  T
   8    -81.4717218 -0.156480E-08  0.221E-04    0.58      66.1  T
     SCC iter.                  ...        0 min,  0.240 sec
     gradient                   ...        0 min,  0.021 sec
 * total energy  :   -80.0678791 Eh     change       -0.1723290E-04 Eh
   gradient norm :     0.0030300 Eh/α   predicted    -0.9451709E-05 ( -45.15%)
   displ. norm   :     0.1235619 α      lambda       -0.2172983E-04
   maximum displ.:     0.0761072 α      in ANC's #7, #4, #3, ...

........................................................................
.............................. CYCLE   40 ..............................
........................................................................
   1    -81.4711648 -0.814712E+02  0.331E-02    0.58       0.0  T
   2    -81.4711486  0.162127E-04  0.243E-02    0.58       1.0  T
   3    -81.4699287  0.121991E-02  0.130E-01    0.57       1.0  T
   4    -81.4711645 -0.123586E-02  0.455E-03    0.58       3.2  T
   5    -81.4711653 -0.837822E-06  0.129E-03    0.58      11.3  T
   6    -81.4711654 -0.427076E-07  0.663E-04    0.58      22.0  T
   7    -81.4711654 -0.142788E-07  0.294E-04    0.58      49.6  T
     SCC iter.                  ...        0 min,  0.229 sec
     gradient                   ...        0 min,  0.016 sec
 * total energy  :   -80.0678959 Eh     change       -0.1676942E-04 Eh
   gradient norm :     0.0026810 Eh/α   predicted    -0.1103160E-04 ( -34.22%)
   displ. norm   :     0.1338777 α      lambda       -0.2728786E-04
   maximum displ.:     0.0848566 α      in ANC's #7, #4, #3, ...

........................................................................
.............................. CYCLE   41 ..............................
........................................................................
   1    -81.4712249 -0.814712E+02  0.372E-02    0.58       0.0  T
   2    -81.4711341  0.907692E-04  0.411E-02    0.58       1.0  T
   3    -81.4704805  0.653657E-03  0.102E-01    0.59       1.0  T
   4    -81.4712259 -0.745374E-03  0.399E-03    0.58       3.7  T
   5    -81.4712265 -0.671777E-06  0.153E-03    0.58       9.6  T
   6    -81.4712266 -0.737457E-07  0.719E-04    0.58      20.3  T
   7    -81.4712266 -0.172862E-07  0.286E-04    0.58      50.9  T
     SCC iter.                  ...        0 min,  0.297 sec
     gradient                   ...        0 min,  0.022 sec
 * total energy  :   -80.0679164 Eh     change       -0.2052585E-04 Eh
   gradient norm :     0.0019848 Eh/α   predicted    -0.1389197E-04 ( -32.32%)
   displ. norm   :     0.2398186 α      lambda       -0.2117864E-04
   maximum displ.:     0.1525899 α      in ANC's #7, #4, #3, ...

........................................................................
.............................. CYCLE   42 ..............................
........................................................................
   1    -81.4711475 -0.814711E+02  0.668E-02    0.58       0.0  T
   2    -81.4705822  0.565327E-03  0.952E-02    0.57       1.0  T
   3    -81.4696771  0.905047E-03  0.146E-01    0.59       1.0  T
   4    -81.4711554 -0.147832E-02  0.553E-03    0.58       2.6  T
   5    -81.4711566 -0.112663E-05  0.235E-03    0.58       6.2  T
   6    -81.4711567 -0.996527E-07  0.134E-03    0.58      10.9  T
   7    -81.4711567 -0.666458E-07  0.622E-04    0.58      23.4  T
   8    -81.4711567 -0.147831E-07  0.231E-04    0.58      63.2  T
     SCC iter.                  ...        0 min,  0.254 sec
     gradient                   ...        0 min,  0.020 sec
 * total energy  :   -80.0679316 Eh     change       -0.1517309E-04 Eh
   gradient norm :     0.0021891 Eh/α   predicted    -0.1086462E-04 ( -28.40%)
   displ. norm   :     0.0244118 α      lambda       -0.6651408E-05
   maximum displ.:     0.0134245 α      in ANC's #7, #8, #3, ...
 * RMSD in coord.:     0.6562051 α      energy gain  -0.3191159E-02 Eh

generating ANC from model Hessian ...
Using Lindh-Hessian (1995)
 Shifting diagonal of input Hessian by    9.9389987210673440E-003
 Lowest  eigenvalues of input Hessian
    0.000000    0.000000    0.000000    0.000000    0.000000    0.000000
    0.010000    0.010170    0.010372    0.010627    0.010728    0.010996
    0.011106    0.012775    0.013339    0.014581    0.015404    0.017316
 Highest eigenvalues
    2.050034    2.073842    2.082957    2.109122    2.119124    2.451934


........................................................................
.............................. CYCLE   43 ..............................
........................................................................
   1    -81.4713877 -0.814714E+02  0.763E-03    0.58       0.0  T
   2    -81.4713725  0.151236E-04  0.151E-02    0.58       1.0  T
   3    -81.4713800 -0.747445E-05  0.110E-02    0.58       1.3  T
   4    -81.4713879 -0.785112E-05  0.125E-03    0.58      11.6  T
   5    -81.4713879 -0.632715E-07  0.518E-04    0.58      28.1  T
   6    -81.4713879 -0.858600E-08  0.216E-04    0.58      67.5  T
     SCC iter.                  ...        0 min,  0.206 sec
     gradient                   ...        0 min,  0.018 sec
 * total energy  :   -80.0679369 Eh     change       -0.5340954E-05 Eh
   gradient norm :     0.0015062 Eh/α   predicted     0.0000000E+00 (-100.00%)
   displ. norm   :     0.0173325 α      lambda       -0.3458348E-05
   maximum displ.:     0.0082012 α      in ANC's #1, #8, #3, ...

........................................................................
.............................. CYCLE   44 ..............................
........................................................................
   1    -81.4717269 -0.814717E+02  0.663E-03    0.58       0.0  T
   2    -81.4717155  0.114111E-04  0.132E-02    0.58       1.1  T
   3    -81.4717217 -0.615533E-05  0.913E-03    0.58       1.6  T
   4    -81.4717270 -0.528750E-05  0.201E-03    0.58       7.3  T
   5    -81.4717271 -0.171994E-06  0.706E-04    0.58      20.7  T
   6    -81.4717272 -0.276500E-07  0.228E-04    0.58      64.0  T
     SCC iter.                  ...        0 min,  0.233 sec
     gradient                   ...        0 min,  0.077 sec
 * total energy  :   -80.0679417 Eh     change       -0.4810087E-05 Eh
   gradient norm :     0.0007364 Eh/α   predicted    -0.2232854E-05 ( -53.58%)
   displ. norm   :     0.0371983 α      lambda       -0.4781689E-05
   maximum displ.:     0.0196616 α      in ANC's #1, #3, #8, ...

   *** GEOMETRY OPTIMIZATION CONVERGED AFTER 44 ITERATIONS ***

------------------------------------------------------------------------
 total energy gain   :        -0.0247556 Eh      -15.5344 kcal/mol
 total RMSD          :         1.4829630 a0        0.7848 Å
 total power (kW/mol):        -1.4771777 (step)   -4.7576 (real)
------------------------------------------------------------------------

 ANCopt (total)                0 d,  0 h,  0 min, 13.661 sec
 optimizer setup                ...        0 min,  0.000 sec (  0.001%)
 model hessian                  ...        0 min,  0.035 sec (  0.257%)
 ANC generation                 ...        0 min,  0.023 sec (  0.168%)
 coordinate transformation      ...        0 min,  0.003 sec (  0.019%)
 single point calculation       ...        0 min, 13.385 sec ( 97.976%)
 optimization log               ...        0 min,  0.008 sec (  0.057%)
 hessian update                 ...        0 min,  0.035 sec (  0.254%)
 rational function              ...        0 min,  0.009 sec (  0.064%)

================
 final structure:
================
47
 xtb: 6.5.1 (fef0646)
C            3.83053567864014        3.35814814032977       -0.94977165957561
S            4.07958373449138        1.68027687997845       -1.22598527567706
C            2.64096215558972        1.22239236371342       -0.34664818325241
C            2.15016591053099       -0.14246260617737       -0.24305873708105
C            0.81171296155448       -0.33870055577689       -0.42099509701544
C            0.21318765883182       -1.61908001472227       -0.33018728794723
C           -1.18318661131149       -1.72709264771489       -0.46917681154906
C           -1.70130024172433       -2.98254195148904       -0.35430018008210
S           -3.59229536556209       -3.19864019058366       -0.43654891143480
C           -4.19608600699349       -1.72701300387132       -0.57188435259763
C           -5.71761290475342        0.08401151293881       -1.37564412505536
C           -5.77795198527898        1.42508912187606       -1.22635983148447
C           -4.70497780374009        1.84083051407495       -0.36136122696824
C           -4.09379434882955        2.91486771262863        0.22841383049067
N           -3.03814840778100        2.43328030340513        0.95157905507089
C           -2.95013016805567        1.07421571570975        0.84389593003327
C           -3.97261089888585        0.67633930352187        0.02743638237265
C           -4.58996620102148       -0.47581194625543       -0.62340146242066
C           -0.95542009876257       -4.06153914707400       -0.08957316694210
C            0.38793109328923       -4.01494955914305        0.09537186569253
C            1.02060513748329       -2.75677513716675       -0.07554630944991
C            2.44491609712476       -2.57567838371654        0.05492592687088
C            3.31553406790877       -3.66287822258553        0.23651984643494
C            4.66115592807194       -3.48470882668439        0.43712567325530
C            5.19146643946244       -2.19764344387195        0.48772530048931
C            4.37286005636803       -1.11614671868178        0.28377796602913
C            3.00227133925624       -1.27092269905974        0.02451765561515
C            2.02114436458634        2.36084746308437        0.09468489182289
S            0.58032132797147        2.66095474352361        1.02664117734311
C            0.90279877283852        4.37869385515447        0.98206112169907
C            2.01487958501686        4.72094983210331        0.30691820158910
C            2.69533472545466        3.58143910282969       -0.22380399260114
H            4.53636409858856        4.06741651857736       -1.33130760635174
H            0.16771905150068        0.49799140282478       -0.65143229952109
H           -1.80992646570713       -0.85907137252632       -0.61707616199448
H           -6.37107064624195       -0.53223429932285       -1.96537519900453
H           -6.50427395118524        2.07985971698400       -1.67277179043685
H           -4.31183394950357        3.96379087220650        0.19522569363162
H           -2.39648460762041        2.99776044411119        1.48306886022758
H           -2.18265618043693        0.53078710808211        1.35880276333024
H            0.95220665142360       -4.89244412667792        0.36567352812594
H            2.92580798965567       -4.66774285548987        0.21320343035154
H            5.30667995945759       -4.34031170077815        0.56958033276327
H            6.24342108855914       -2.05199558335629        0.68266830689752
H            4.79517973103533       -0.12525251292237        0.33369365778791
H            0.21236698755117        5.03252417674941        1.47991821019023
H            2.35989718413070        5.73102830264141        0.18141447571891

 Bond Distances (Angstroems)
 ---------------------------
C1-S2=1.7186         C1-C32=1.3659        C1-H33=1.0709        S2-C1=1.7186         S2-C3=1.7471         C3-S2=1.7471         
C3-C4=1.4541         C3-C28=1.3693        C4-C3=1.4541         C4-C5=1.3644         C4-C27=1.4391        C5-C4=1.3644         
C5-C6=1.4163         C5-H34=1.0807        C6-C5=1.4163         C6-C7=1.4074         C6-C21=1.4181        C7-C6=1.4074         
C7-C8=1.3630         C7-H35=1.0808        C8-C7=1.3630         C8-S9=1.9051         C8-C19=1.3382        S9-C8=1.9051         
S9-C10=1.5964        C10-S9=1.5964        C10-C18=1.3127       C11-C12=1.3507       C11-C18=1.4666       C11-H36=1.0745       
C12-C11=1.3507       C12-C13=1.4396       C12-H37=1.0750       C13-C12=1.4396       C13-C14=1.3693       C13-C17=1.4295       
C14-C13=1.3693       C14-N15=1.3672       C14-H38=1.0719       N15-C14=1.3672       N15-C16=1.3662       N15-H39=1.0064       
C16-N15=1.3662       C16-C17=1.3676       C16-H40=1.0721       C17-C13=1.4295       C17-C16=1.3676       C17-C18=1.4602       
C18-C10=1.3127       C18-C11=1.4666       C18-C17=1.4602       C19-C8=1.3382        C19-C20=1.3568       C20-C19=1.3568       
C20-C21=1.4186       C20-H41=1.0777       C21-C6=1.4181        C21-C20=1.4186       C21-C22=1.4417       C22-C21=1.4417       
C22-C23=1.4046       C22-C27=1.4191       C23-C22=1.4046       C23-C24=1.3721       C23-H42=1.0780       C24-C23=1.3721       
C24-C25=1.3930       C24-H43=1.0800       C25-C24=1.3930       C25-C26=1.3716       C25-H44=1.0797       C26-C25=1.3716       
C26-C27=1.4035       C26-H45=1.0783       C27-C4=1.4391        C27-C22=1.4191       C27-C26=1.4035       C28-C3=1.3693        
C28-S29=1.7420       C28-C32=1.4303       S29-C28=1.7420       S29-C30=1.7483       C30-S29=1.7483       C30-C31=1.3452       
C30-H46=1.0733       C31-C30=1.3452       C31-C32=1.4294       C31-H47=1.0747       C32-C1=1.3659        C32-C28=1.4303       
C32-C31=1.4294       H33-C1=1.0709        H34-C5=1.0807        H35-C7=1.0808        H36-C11=1.0745       H37-C12=1.0750       
H38-C14=1.0719       H39-N15=1.0064       H40-C16=1.0721       H41-C20=1.0777       H42-C23=1.0780       H43-C24=1.0800       
H44-C25=1.0797       H45-C26=1.0783       H46-C30=1.0733       H47-C31=1.0747       
 C  H  Rav=1.0763 sigma=0.0033  Rmin=1.0709  Rmax=1.0808    14
 C  C  Rav=1.3973 sigma=0.0395  Rmin=1.3127  Rmax=1.4666    30
 N  H  Rav=1.0064 sigma=0.0000  Rmin=1.0064  Rmax=1.0064     1
 N  C  Rav=1.3667 sigma=0.0005  Rmin=1.3662  Rmax=1.3672     2
 S  C  Rav=1.7429 sigma=0.0898  Rmin=1.5964  Rmax=1.9051     6

 selected bond angles (degree)
 --------------------
C32-C1-S2=111.44               H33-C1-S2=119.59               H33-C1-C32=128.97              C3-S2-C1= 93.19                
C4-C3-S2=124.04                C28-C3-S2=108.48               C28-C3-C4=127.20               C5-C4-C3=117.18                
C27-C4-C3=123.33               C27-C4-C5=119.49               C6-C5-C4=122.43                H34-C5-C4=120.07               
H34-C5-C6=117.50               C7-C6-C5=118.84                C21-C6-C5=119.75               C21-C6-C7=121.40               
C8-C7-C6=116.07                H35-C7-C6=121.82               H35-C7-C8=122.06               S9-C8-C7=118.57                
C19-C8-C7=123.20               C19-C8-S9=118.06               C10-S9-C8=105.93               C18-C10-S9=174.51              

 selected dihedral angles (degree)
 ---------------------------------
C3-S2-C1-C32=359.65           C3-S2-C1-H33=179.19           C4-C3-S2-C1=175.54            C28-C3-S2-C1=  1.18           
C5-C4-C3-S2=224.68            C5-C4-C3-C28= 37.96           C27-C4-C3-S2= 44.25           C27-C4-C3-C28=217.52          
C6-C5-C4-C3=180.69            C6-C5-C4-C27=  1.11           H34-C5-C4-C3=  1.40           H34-C5-C4-C27=181.82          
C7-C6-C5-C4=177.25            C7-C6-C5-H34=356.56           C21-C6-C5-C4=358.54           C21-C6-C5-H34=177.85          
C8-C7-C6-C5=180.85            C8-C7-C6-C21=359.54           H35-C7-C6-C5=358.39           H35-C7-C6-C21=177.08          
S9-C8-C7-C6=176.75            S9-C8-C7-H35=359.21           C19-C8-C7-C6=  1.75           C19-C8-C7-H35=184.22          
C10-S9-C8-C7=357.49           C10-S9-C8-C19=172.74          C18-C10-S9-C8=332.91          
           -------------------------------------------------
          |                Final Singlepoint                |
           -------------------------------------------------

          ...................................................
          :                      SETUP                      :
          :.................................................:
          :  # basis functions                 161          :
          :  # atomic orbitals                 158          :
          :  # shells                           82          :
          :  # electrons                       150          :
          :  max. iterations                  4000          :
          :  Hamiltonian                  GFN2-xTB          :
          :  restarted?                      false          :
          :  GBSA solvation                  false          :
          :  PC potential                    false          :
          :  electronic temp.          300.0000000     K    :
          :  accuracy                    1.0000000          :
          :  -> integral cutoff          0.2500000E+02      :
          :  -> integral neglect         0.1000000E-07      :
          :  -> SCF convergence          0.1000000E-05 Eh   :
          :  -> wf. convergence          0.1000000E-03 e    :
          :  Broyden damping             0.4000000          :
          ...................................................

 iter      E             dE          RMSdq      gap      omega  full diag
   1    -81.4717272 -0.814717E+02  0.798E-05    0.58       0.0  T
   2    -81.4717272  0.281531E-09  0.912E-05    0.58     160.0  T
   3    -81.4717272  0.246338E-08  0.202E-04    0.58      72.4  T

   *** convergence criteria satisfied after 3 iterations ***

         #    Occupation            Energy/Eh            Energy/eV
      -------------------------------------------------------------
         1        2.0000           -0.7411535             -20.1678
       ...           ...                  ...                  ...
        69        2.0000           -0.3986314             -10.8473
        70        2.0000           -0.3879364             -10.5563
        71        2.0000           -0.3853714             -10.4865
        72        2.0000           -0.3730165             -10.1503
        73        2.0000           -0.3650934              -9.9347
        74        2.0000           -0.3581004              -9.7444
        75        2.0000           -0.3285650              -8.9407 (HOMO)
        76        0.0000           -0.3071656              -8.3584 (LUMO)
        77                         -0.2793801              -7.6023
        78                         -0.2652827              -7.2187
        79                         -0.2596197              -7.0646
        80                         -0.2499295              -6.8009
       ...                                ...                  ...
       158                          1.0432847              28.3892
      -------------------------------------------------------------
                  HL-Gap            0.0213994 Eh            0.5823 eV
             Fermi-level           -0.3178653 Eh           -8.6496 eV

 SCC (total)                   0 d,  0 h,  0 min,  0.317 sec
 SCC setup                      ...        0 min,  0.007 sec (  2.191%)
 Dispersion                     ...        0 min,  0.013 sec (  4.096%)
 classical contributions        ...        0 min,  0.014 sec (  4.533%)
 integral evaluation            ...        0 min,  0.025 sec (  7.800%)
 iterations                     ...        0 min,  0.239 sec ( 75.334%)
 molecular gradient             ...        0 min,  0.017 sec (  5.208%)
 printout                       ...        0 min,  0.003 sec (  0.824%)

         :::::::::::::::::::::::::::::::::::::::::::::::::::::
         ::                     SUMMARY                     ::
         :::::::::::::::::::::::::::::::::::::::::::::::::::::
         :: total energy             -80.067941701420 Eh    ::
         :: gradient norm              0.000736267806 Eh/a0 ::
         :: HOMO-LUMO gap              0.582307903534 eV    ::
         ::.................................................::
         :: SCC energy               -81.471727155806 Eh    ::
         :: -> isotropic ES            0.005741219011 Eh    ::
         :: -> anisotropic ES          0.005512485659 Eh    ::
         :: -> anisotropic XC          0.039296026349 Eh    ::
         :: -> dispersion             -0.071713370196 Eh    ::
         :: repulsion energy           1.403587391007 Eh    ::
         :: add. restraining           0.000000000000 Eh    ::
         :: total charge              -0.000000000000 e     ::
         :::::::::::::::::::::::::::::::::::::::::::::::::::::

           -------------------------------------------------
          |                Property Printout                |
           -------------------------------------------------

    * Orbital Energies and Occupations

         #    Occupation            Energy/Eh            Energy/eV
      -------------------------------------------------------------
         1        2.0000           -0.7411535             -20.1678
       ...           ...                  ...                  ...
        63        2.0000           -0.4259548             -11.5908
        64        2.0000           -0.4242938             -11.5456
        65        2.0000           -0.4230954             -11.5130
        66        2.0000           -0.4185236             -11.3886
        67        2.0000           -0.4139621             -11.2645
        68        2.0000           -0.4010671             -10.9136
        69        2.0000           -0.3986314             -10.8473
        70        2.0000           -0.3879364             -10.5563
        71        2.0000           -0.3853714             -10.4865
        72        2.0000           -0.3730165             -10.1503
        73        2.0000           -0.3650934              -9.9347
        74        2.0000           -0.3581004              -9.7444
        75        2.0000           -0.3285650              -8.9407 (HOMO)
        76        0.0000           -0.3071656              -8.3584 (LUMO)
        77                         -0.2793801              -7.6023
        78                         -0.2652827              -7.2187
        79                         -0.2596197              -7.0646
        80                         -0.2499295              -6.8009
        81                         -0.2277778              -6.1981
        82                         -0.2252162              -6.1284
        83                         -0.2117538              -5.7621
        84                         -0.2051187              -5.5816
        85                         -0.2029372              -5.5222
        86                         -0.1920370              -5.2256
       ...                                ...                  ...
       158                          1.0432847              28.3892
      -------------------------------------------------------------
                  HL-Gap            0.0213994 Eh            0.5823 eV
             Fermi-level           -0.3178653 Eh           -8.6496 eV

     #   Z          covCN         q      C6AA      α(0)
     1   6 C        2.932    -0.035    28.859     8.810
     2  16 S        2.356    -0.016   141.707    20.035
     3   6 C        2.991     0.005    27.896     8.664
     4   6 C        2.980     0.002    27.987     8.678
     5   6 C        2.933    -0.040    28.985     8.829
     6   6 C        2.998     0.008    27.823     8.653
     7   6 C        2.945    -0.040    29.006     8.833
     8   6 C        2.972     0.039    27.125     8.543
     9  16 S        1.982    -0.021   141.932    20.051
    10   6 C        1.966     0.003    30.991     8.990
    11   6 C        3.012    -0.042    29.020     8.837
    12   6 C        2.973    -0.034    28.840     8.809
    13   6 C        3.208    -0.026    28.013     8.618
    14   6 C        2.995    -0.014    28.346     8.734
    15   7 N        2.835    -0.080    22.796     7.091
    16   6 C        2.985    -0.012    28.298     8.726
    17   6 C        3.203    -0.029    28.110     8.637
    18   6 C        3.026     0.010    27.757     8.642
    19   6 C        2.033    -0.095    33.607     9.363
    20   6 C        2.923    -0.022    28.551     8.762
    21   6 C        2.989     0.004    27.934     8.670
    22   6 C        2.979     0.010    27.780     8.646
    23   6 C        2.922    -0.034    28.837     8.806
    24   6 C        2.917    -0.030    28.740     8.791
    25   6 C        2.917    -0.030    28.742     8.791
    26   6 C        2.921    -0.036    28.889     8.814
    27   6 C        2.984     0.009    27.815     8.651
    28   6 C        3.219     0.017    26.915     8.436
    29  16 S        2.200    -0.091   144.835    20.255
    30   6 C        2.940    -0.007    28.200     8.709
    31   6 C        3.038    -0.046    29.104     8.849
    32   6 C        3.319    -0.007    26.055     8.128
    33   1 H        0.927     0.048     2.345     2.395
    34   1 H        0.926     0.038     2.479     2.462
    35   1 H        0.926     0.048     2.350     2.397
    36   1 H        0.926     0.028     2.621     2.532
    37   1 H        0.926     0.027     2.623     2.533
    38   1 H        0.926     0.030     2.585     2.514
    39   1 H        0.860     0.161     1.327     1.805
    40   1 H        0.926     0.034     2.537     2.491
    41   1 H        0.926     0.041     2.433     2.439
    42   1 H        0.926     0.038     2.476     2.461
    43   1 H        0.926     0.033     2.551     2.498
    44   1 H        0.926     0.032     2.554     2.499
    45   1 H        0.926     0.040     2.452     2.449
    46   1 H        0.926     0.040     2.447     2.446
    47   1 H        0.926     0.040     2.449     2.447

 Mol. C6AA /au·bohr⁶  :      45466.214010
 Mol. C8AA /au·bohr⁸  :    1339492.576382
 Mol. α(0) /au        :        348.219452


Wiberg/Mayer (AO) data.
largest (>0.10) Wiberg bond orders for each atom

 ---------------------------------------------------------------------------
     #   Z sym  total        # sym  WBO       # sym  WBO       # sym  WBO
 ---------------------------------------------------------------------------
     1   6 C    3.932 --    32 C    1.498     2 S    1.209    33 H    0.968
                             3 C    0.119
     2  16 S    2.653 --     1 C    1.209     3 C    1.131
     3   6 C    3.943 --    28 C    1.494     2 S    1.131     4 C    1.084
                             1 C    0.119
     4   6 C    3.986 --     5 C    1.550    27 C    1.161     3 C    1.084
     5   6 C    3.988 --     4 C    1.550     6 C    1.219    34 H    0.962
     6   6 C    3.988 --     7 C    1.300    21 C    1.277     5 C    1.219
     7   6 C    3.966 --     8 C    1.449     6 C    1.300    35 H    0.949
                            20 C    0.118
     8   6 C    3.944 --    19 C    1.567     7 C    1.449     9 S    0.735
     9  16 S    2.755 --    10 C    1.594     8 C    0.735    19 C    0.129
    10   6 C    3.900 --    18 C    1.699     9 S    1.594    19 C    0.326
    11   6 C    3.953 --    12 C    1.725    18 C    1.059    36 H    0.972
    12   6 C    3.962 --    11 C    1.725    13 C    1.126    37 H    0.969
    13   6 C    3.973 --    14 C    1.490    17 C    1.197    12 C    1.126
    14   6 C    3.923 --    13 C    1.490    15 N    1.219    38 H    0.970
                            16 C    0.118
    15   7 N    3.578 --    16 C    1.220    14 C    1.219    39 H    0.946
    16   6 C    3.932 --    17 C    1.505    15 N    1.220    40 H    0.968
                            14 C    0.118
    17   6 C    3.931 --    16 C    1.505    13 C    1.197    18 C    1.022
    18   6 C    3.971 --    10 C    1.699    11 C    1.059    17 C    1.022
    19   6 C    3.717 --     8 C    1.567    20 C    1.499    10 C    0.326
                             9 S    0.129
    20   6 C    3.976 --    19 C    1.499    21 C    1.287    41 H    0.957
                             7 C    0.118
    21   6 C    3.940 --    20 C    1.287     6 C    1.277    22 C    1.161
    22   6 C    3.980 --    23 C    1.330    27 C    1.281    21 C    1.161
    23   6 C    3.988 --    24 C    1.509    22 C    1.330    42 H    0.962
                            26 C    0.111
    24   6 C    3.985 --    23 C    1.509    25 C    1.364    43 H    0.971
    25   6 C    3.981 --    26 C    1.508    24 C    1.364    44 H    0.971
    26   6 C    3.983 --    25 C    1.508    27 C    1.328    45 H    0.959
                            23 C    0.111
    27   6 C    3.983 --    26 C    1.328    22 C    1.281     4 C    1.161
    28   6 C    3.946 --     3 C    1.494    32 C    1.179    29 S    1.073
    29  16 S    2.491 --    30 C    1.115    28 C    1.073    31 C    0.106
    30   6 C    3.957 --    31 C    1.719    29 S    1.115    46 H    0.970
    31   6 C    3.987 --    30 C    1.719    32 C    1.156    47 H    0.962
                            29 S    0.106
    32   6 C    3.983 --     1 C    1.498    28 C    1.179    31 C    1.156
    33   1 H    0.997 --     1 C    0.968
    34   1 H    0.997 --     5 C    0.962
    35   1 H    0.997 --     7 C    0.949
    36   1 H    0.997 --    11 C    0.972
    37   1 H    0.994 --    12 C    0.969
    38   1 H    0.998 --    14 C    0.970
    39   1 H    0.973 --    15 N    0.946
    40   1 H    0.999 --    16 C    0.968
    41   1 H    0.992 --    20 C    0.957
    42   1 H    0.998 --    23 C    0.962
    43   1 H    0.998 --    24 C    0.971
    44   1 H    0.998 --    25 C    0.971
    45   1 H    0.997 --    26 C    0.959
    46   1 H    0.997 --    30 C    0.970
    47   1 H    0.998 --    31 C    0.962
 ---------------------------------------------------------------------------

Topologies differ in total number of bonds
Writing topology from bond orders to xtbtopo.mol

molecular dipole:
                 x           y           z       tot (Debye)
 q only:        0.465       0.880       0.294
   full:        0.875       1.620       0.391       4.784
molecular quadrupole (traceless):
                xx          xy          yy          xz          yz          zz
 q only:       -1.527      -6.395       4.966      -1.836       1.641      -3.439
  q+dip:       -4.259      -7.517      15.629       1.906       1.968     -11.370
   full:       -6.526      -6.700      10.722      -0.066       2.371      -4.197

           -------------------------------------------------
          |                Geometry Summary                 |
           -------------------------------------------------

      molecular mass/u    :      461.6207819
   center of mass at/Å    :        0.0382686      -0.0001150      -0.1065145
  moments of inertia/u·Å² :        0.3341535E+04   0.5287605E+04   0.8219438E+04
rotational constants/cm⁻¹ :        0.5044877E-02   0.3188141E-02   0.2050947E-02

 * 47 selected distances

     #   Z          #   Z                                           value/Å
     1   6 C        2  16 S                                       1.7185958
     2  16 S        3   6 C                                       1.7471476
     4   6 C        5   6 C                                       1.3644146
     5   6 C        6   6 C                                       1.4162805
     6   6 C        7   6 C                                       1.4074254
     7   6 C        8   6 C                                       1.3630083
     9  16 S       10   6 C                                       1.5964228
    11   6 C       12   6 C                                       1.3507095
    12   6 C       13   6 C                                       1.4395616
    13   6 C       14   6 C                                       1.3692831
    14   6 C       15   7 N                                       1.3672173
    15   7 N       16   6 C                                       1.3661624
    13   6 C       17   6 C                                       1.4295331
    16   6 C       17   6 C                                       1.3676180
    10   6 C       18   6 C                                       1.3127452
     8   6 C       19   6 C                                       1.3381528
    19   6 C       20   6 C                                       1.3568228
     6   6 C       21   6 C                                       1.4181381
    20   6 C       21   6 C                                       1.4186235
    22   6 C       23   6 C                                       1.4046195
    23   6 C       24   6 C                                       1.3721099
    24   6 C       25   6 C                                       1.3929563
    25   6 C       26   6 C                                       1.3716218
    22   6 C       27   6 C                                       1.4191396
    26   6 C       27   6 C                                       1.4034548
     3   6 C       28   6 C                                       1.3693171
    28   6 C       29  16 S                                       1.7420042
    29  16 S       30   6 C                                       1.7483156 (max)
    30   6 C       31   6 C                                       1.3452439
     1   6 C       32   6 C                                       1.3658585
    28   6 C       32   6 C                                       1.4303189
    31   6 C       32   6 C                                       1.4293951
     1   6 C       33   1 H                                       1.0708993
     5   6 C       34   1 H                                       1.0806864
     7   6 C       35   1 H                                       1.0808044
    11   6 C       36   1 H                                       1.0744994
    12   6 C       37   1 H                                       1.0749660
    14   6 C       38   1 H                                       1.0718595
    15   7 N       39   1 H                                       1.0064054 (min)
    16   6 C       40   1 H                                       1.0721288
    20   6 C       41   1 H                                       1.0777137
    23   6 C       42   1 H                                       1.0780460
    24   6 C       43   1 H                                       1.0799546
    25   6 C       44   1 H                                       1.0797337
    26   6 C       45   1 H                                       1.0782936
    30   6 C       46   1 H                                       1.0733369
    31   6 C       47   1 H                                       1.0747312

 * 5 distinct bonds (by element types)

   Z      Z             #   av. dist./Å        max./Å        min./Å
   1 H    6 C          14     1.0762610     1.0808044     1.0708993
   6 C    6 C          25     1.3862541     1.4395616     1.3127452
   1 H    7 N           1     1.0064054     1.0064054     1.0064054
   6 C    7 N           2     1.3666898     1.3672173     1.3661624
   6 C   16 S           5     1.7104972     1.7483156     1.5964228


optimized geometry written to: xtbopt.xyz


           -------------------------------------------------
          | TOTAL ENERGY              -80.067941701420 Eh   |
          | GRADIENT NORM               0.000736267806 Eh/α |
          | HOMO-LUMO GAP               0.582307903534 eV   |
           -------------------------------------------------

------------------------------------------------------------------------
 * finished run on 2024/06/14 at 03:02:52.250     
------------------------------------------------------------------------
 total:
 * wall-time:     0 d,  0 h,  0 min, 14.589 sec
 *  cpu-time:     0 d,  0 h,  1 min, 17.953 sec
 * ratio c/w:     5.343 speedup
 SCF:
 * wall-time:     0 d,  0 h,  0 min,  0.584 sec
 *  cpu-time:     0 d,  0 h,  0 min,  3.200 sec
 * ratio c/w:     5.479 speedup
 ANC optimizer:
 * wall-time:     0 d,  0 h,  0 min, 13.980 sec
 *  cpu-time:     0 d,  0 h,  1 min, 14.598 sec
 * ratio c/w:     5.336 speedup

