47
 energy: -80.043186149111 gnorm: 0.096959880464 xtb: 6.5.1 (fef0646)
C            3.68339479480000        3.46526907590000       -0.15780229380000
S            4.13090034430000        1.79974826830000       -0.21199019060000
C            2.49381066760000        1.19263764900000       -0.03730641440000
C            2.03214619230000       -0.17097437580000        0.00367498150000
C            0.68195702910000       -0.39143381240000        0.13682304370000
C            0.10869894200000       -1.67009123260000        0.17227091500000
C           -1.28786226640000       -1.80001004760000        0.28927160390000
C           -1.87796478500000       -3.03837977140000        0.30619611750000
S           -3.64614262810000       -3.16969846340000        0.43143188200000
C           -4.11989975760000       -1.63020834950000       -0.00932075190000
C           -4.84269905640000        0.06807198330000       -1.65912428560000
C           -4.66867356000000        1.40660587760000       -1.80123498690000
C           -3.97910290380000        1.90093760250000       -0.63553090540000
C           -3.43945420940000        3.04056161620000       -0.04125180240000
N           -2.90264799270000        2.65237168170000        1.15495932550000
C           -3.07785575630000        1.30250257470000        1.35117388530000
C           -3.74677940030000        0.81151146150000        0.23914632730000
C           -4.28436339900000       -0.39486763730000       -0.39952168310000
C           -1.04109743960000       -4.11902725300000        0.21874210950000
C            0.29266042580000       -4.07007686440000        0.10926759050000
C            0.93521297640000       -2.81673226200000        0.07645228800000
C            2.36868229230000       -2.63414334810000       -0.05457304060000
C            3.24531137780000       -3.72607583680000       -0.14838352660000
C            4.59628187820000       -3.54489793260000       -0.27580662640000
C            5.12750403340000       -2.26424161470000       -0.31528020470000
C            4.30056140160000       -1.18030022500000       -0.22605903650000
C            2.91167407450000       -1.32384321730000       -0.09370869060000
C            1.66464719650000        2.30079184040000        0.06161175540000
S           -0.05284895320000        2.52049174320000        0.27275339170000
C            0.09745437180000        4.26166859630000        0.26778749090000
C            1.37506000590000        4.66822802790000        0.11479016100000
C            2.31399377640000        3.56463850470000       -0.00602592130000
H            4.36210676800000        4.29179045560000       -0.22748014120000
H            0.01504769640000        0.44596275450000        0.21115435950000
H           -1.89139716900000       -0.91456764510000        0.35439782070000
H           -5.30755041900000       -0.57866419440000       -2.38333391710000
H           -4.97452394760000        2.00508524990000       -2.64150947870000
H           -3.43938977720000        4.03777343150000       -0.44848182680000
H           -2.43255234060000        3.27543792190000        1.81690037930000
H           -2.74663662700000        0.73272551100000        2.20356722570000
H            0.85502251810000       -4.98650219160000        0.04327306850000
H            2.85134897940000       -4.72563396950000       -0.11930496950000
H            5.25077870860000       -4.39833607790000       -0.34586859460000
H            6.19166825810000       -2.12649003210000       -0.41592958760000
H            4.72354424500000       -0.19415612370000       -0.25718010030000
H           -0.74621095920000        4.91608409510000        0.37372626960000
H            1.68346732610000        5.70031415690000        0.08527140000000
47
 energy: -80.053418509462 gnorm: 0.052911434210 xtb: 6.5.1 (fef0646)
C            3.65796749679455        3.48046518423508       -0.15435977718477
S            4.11271400040089        1.82620985938747       -0.21539084564478
C            2.47700083298944        1.21716877641771       -0.03425175165947
C            2.04296224303941       -0.16686512795561        0.00020036228614
C            0.69810275846030       -0.40139676144793        0.13528705095023
C            0.12306311195228       -1.68320513342005        0.16909019070674
C           -1.26964325804604       -1.80148018540971        0.30135261651364
C           -1.85830978017377       -3.04090109567482        0.30362691880032
S           -3.64809891211854       -3.15709800444547        0.39413118843064
C           -4.10518892354674       -1.63688891746541       -0.02853807058499
C           -4.87798077754501        0.08481453339252       -1.64977099969471
C           -4.67595801654281        1.41430183117365       -1.80300947125601
C           -3.98949288208020        1.90866401517646       -0.63734507132779
C           -3.45442426999308        3.03019826825171       -0.04440168265466
N           -2.92378301928903        2.63916768953391        1.15061658671814
C           -3.08659822567606        1.29601488478409        1.34101896089454
C           -3.74303499492345        0.81366309882458        0.23443938745783
C           -4.26314179606269       -0.39449211123597       -0.41229456029626
C           -1.04746287040824       -4.14146771974806        0.21565732568609
C            0.30240861731604       -4.08825844554427        0.13185307701668
C            0.94404505707504       -2.82853855419336        0.07214304509544
C            2.36755238208337       -2.63496920035233       -0.06643466587136
C            3.24113478733367       -3.73110354922953       -0.15289035905593
C            4.59639462937041       -3.56302133651509       -0.27599591211812
C            5.13320553308068       -2.28222268014722       -0.31542363723115
C            4.30537930500824       -1.19618040222269       -0.22540896878601
C            2.91479186299941       -1.32347017236483       -0.09897974019256
C            1.65011920902851        2.32641444524092        0.06463258762434
S           -0.06688994954894        2.55313767602202        0.27070401166674
C            0.11635669693104        4.28709059873781        0.26608824821021
C            1.38889941464894        4.69135407207327        0.11429164818041
C            2.30278318798111        3.59051681520653       -0.00201361254537
H            4.36164412737455        4.28357675508795       -0.22824968407278
H            0.01292777350890        0.42105412184508        0.20927917706824
H           -1.87442257836965       -0.91162664143817        0.40536776171125
H           -5.33622770859738       -0.57012294160682       -2.36862553772044
H           -4.97063390175223        2.00843124607705       -2.64860743896136
H           -3.43558658049642        4.03406774249628       -0.42293442009712
H           -2.45671213295084        3.25316192929048        1.80515413213490
H           -2.74345552182085        0.75664484926530        2.20338074353316
H            0.87116706307548       -5.00207297562447        0.06620762474037
H            2.84158170389973       -4.73080430761541       -0.12219785205009
H            5.24802602283221       -4.42045496901837       -0.34473650520448
H            6.19865720388519       -2.14214020230510       -0.41627565195149
H            4.74383572907274       -0.21903814250197       -0.25562256978760
H           -0.73956234165460        4.92453838686935        0.36916904682477
H            1.70117062445445        5.71902039949347        0.08270150909846
47
 energy: -80.057926753916 gnorm: 0.022610053612 xtb: 6.5.1 (fef0646)
C            3.64291796941615        3.48481270505827       -0.15418180892898
S            4.09988714113580        1.83886500969229       -0.21936514854201
C            2.46115026449683        1.23840564169219       -0.03420476356349
C            2.05464078178027       -0.16245380157275       -0.00402820169046
C            0.71489885309689       -0.40519697002360        0.13677139366902
C            0.13803179745014       -1.69137320778322        0.17491759505402
C           -1.25010930569835       -1.79800110315833        0.32145468333341
C           -1.82670131208314       -3.04047269304652        0.29696014974485
S           -3.64904917555278       -3.13536200934906        0.34092424531578
C           -4.10492241929617       -1.64396721771310       -0.05204720052425
C           -4.89439468492763        0.09366046063609       -1.65702961060876
C           -4.69696400431379        1.42056602124484       -1.80415266744604
C           -4.00115849149773        1.91421747492063       -0.64471325971933
C           -3.47617885773109        3.02240985671946       -0.04591074500603
N           -2.94510259052840        2.62611581696596        1.14755800483775
C           -3.09121650834677        1.28335127427945        1.32387345671980
C           -3.74598317743778        0.81000790647741        0.22390851424371
C           -4.26646507495863       -0.39497892733206       -0.42148904157609
C           -1.04907902202896       -4.16059646962636        0.20695054733786
C            0.31225388861637       -4.10226421916754        0.15027867312240
C            0.95233026718955       -2.83823867190768        0.07088431567454
C            2.36867873059087       -2.63410698577923       -0.07378967174518
C            3.23925405797456       -3.73343706235719       -0.16130599309786
C            4.59760689140727       -3.58113927767070       -0.27996208521372
C            5.14017308761015       -2.30075168792226       -0.31668575535334
C            4.31324984781075       -1.20994188735444       -0.22640412056508
C            2.92099207974613       -1.32081143072597       -0.10342740431463
C            1.63822026490456        2.34660075991797        0.06635485671541
S           -0.07769261630266        2.58730079734860        0.26931715710783
C            0.13053947582662        4.31545144853272        0.26096883640025
C            1.40322192061121        4.71522644681552        0.11376634216760
C            2.29665137966905        3.61222183057929        0.00050326702553
H            4.38046756449970        4.25877442160255       -0.23236914919357
H            0.01079022536054        0.40394563320916        0.21084361648314
H           -1.85777544597388       -0.90984021759563        0.46755119299726
H           -5.35473754179159       -0.57041159284685       -2.36447433122251
H           -4.99834307175064        2.01517220831813       -2.64608345435004
H           -3.44302015926770        4.04085533744991       -0.38039841303769
H           -2.48375408952768        3.23333228462499        1.80014195346008
H           -2.73750756227915        0.78215274753466        2.20361239343245
H            0.88805707279252       -5.01435422287639        0.11412590491035
H            2.83348937041595       -4.73219765448554       -0.13208984294062
H            5.24385000216597       -4.44427074520844       -0.34410999313947
H            6.20649395142598       -2.15997429879136       -0.41419094252067
H            4.77100134800746       -0.24027648017433       -0.25269608974849
H           -0.74177444928314        4.93261231300264        0.36343253865591
H            1.72036425957621        5.74021803924589        0.08264447103928
47
 energy: -80.058968279606 gnorm: 0.015579001124 xtb: 6.5.1 (fef0646)
C            3.65011543833154        3.48368638101252       -0.15752526049705
S            4.10067316900150        1.83667256844938       -0.22474030522922
C            2.46003853676800        1.24270861755860       -0.03595469545074
C            2.06130001958744       -0.16125990444498       -0.00215919530276
C            0.72256827295532       -0.40375798713237        0.14473208881341
C            0.14524371280121       -1.69100488386460        0.18879210818865
C           -1.24262563703025       -1.79554639523971        0.33892879917781
C           -1.80693608367098       -3.04193057470791        0.29338375513708
S           -3.64781912085743       -3.13522923140585        0.30113439149288
C           -4.10147295016303       -1.65070921771694       -0.08285161027565
C           -4.90847622947062        0.09657489884609       -1.66715014539213
C           -4.71696823647072        1.42522692790266       -1.80714280506054
C           -4.01716638764922        1.91632244565163       -0.64839240163802
C           -3.50148043094646        3.02440833220570       -0.03899109798047
N           -2.96428928766531        2.62162863961691        1.15144358698519
C           -3.10278609314761        1.27481205294539        1.31737867556264
C           -3.75245609846459        0.80466301013732        0.21209925326295
C           -4.26425128254640       -0.39721797344860       -0.44084951250913
C           -1.04090794016527       -4.16411962462781        0.20879198382884
C            0.32124991862036       -4.10420539396093        0.16562617052116
C            0.95782503246363       -2.83952720831739        0.08026843734756
C            2.37355532101376       -2.63367050120403       -0.07236611570839
C            3.24032205698729       -3.73504360669037       -0.16767453247270
C            4.59901028826214       -3.59062335403913       -0.28527671445125
C            5.14491719721331       -2.31179109920238       -0.31748395300255
C            4.32145418883019       -1.21709781715176       -0.22669689257766
C            2.92838456769646       -1.32008051770160       -0.10301680617814
C            1.64070167487625        2.35253946128359        0.06470788379291
S           -0.07474096723487        2.60465640286720        0.26505556249862
C            0.13787889797419        4.33269143277478        0.25661241492899
C            1.41348889265753        4.72740669360440        0.11158189498173
C            2.30350835285693        3.61887210923801       -0.00095815171203
H            4.40017107260318        4.24556680380682       -0.23707434907071
H            0.01459265819289        0.40271362764217        0.21807203889010
H           -1.85146577272500       -0.91259991268280        0.49764888499946
H           -5.38158563574678       -0.56815713181679       -2.36558731397367
H           -5.03079720459670        2.02448487984496       -2.64180972760204
H           -3.46643932201078        4.05049272247315       -0.35070668887750
H           -2.50270167040115        3.22684146187385        1.80699325750382
H           -2.74008468598016        0.78514324912751        2.19997149871354
H            0.89988473031467       -5.01586639799474        0.15287013457735
H            2.82956426764346       -4.73190087453156       -0.14450704930716
H            5.24012574390041       -4.45746497630406       -0.35035906618868
H            6.21158927013293       -2.17367956353357       -0.41258697301417
H            4.78841952172736       -0.25067289809669       -0.25058340341149
H           -0.73846613146917        4.94491164066659        0.35765734248869
H            1.73461729800023        5.75199028768747        0.08132901859029
47
 energy: -80.059727354352 gnorm: 0.008538008043 xtb: 6.5.1 (fef0646)
C            3.66667935977411        3.48077761788928       -0.16416661278257
S            4.10819873468428        1.82986640319725       -0.23015751483797
C            2.46580257136883        1.24303841483714       -0.03711062827817
C            2.06991853588489       -0.16055022722356        0.00520861106223
C            0.73126865828621       -0.40042856010855        0.16016806752529
C            0.15288807432807       -1.68751058532749        0.20960728563655
C           -1.23700967473949       -1.79136769461812        0.35721556382187
C           -1.78541459089392       -3.04243830247983        0.28685787329105
S           -3.64766290790553       -3.14108131430365        0.24854254567272
C           -4.10344423902851       -1.65635470340215       -0.12201854757074
C           -4.92459212720768        0.10002577802455       -1.68217546763854
C           -4.75334475858273        1.43394147474373       -1.80621555389899
C           -4.04325246755660        1.91826485999562       -0.65047707140384
C           -3.53856911741358        3.02739291151429       -0.02846324817498
N           -2.99136207406927        2.61525848862897        1.15610671056925
C           -3.11487659006467        1.26219082275868        1.30679143080434
C           -3.76419690585127        0.79810061290495        0.19652142761168
C           -4.27212521057049       -0.39801784325450       -0.46388370085836
C           -1.02613589903785       -4.16129332748646        0.21595860181009
C            0.33494728435884       -4.10300890976701        0.19032723028084
C            0.96533940298838       -2.83751268335714        0.09856791532059
C            2.38162484608884       -2.63250897659842       -0.06529428665561
C            3.24264872540265       -3.73652698400151       -0.17493647895118
C            4.60125440427272       -3.59912420785252       -0.29404102681558
C            5.15083864049269       -2.32238042911647       -0.31811773679536
C            4.33258414126164       -1.22328986020789       -0.22430208904558
C            2.93909652025088       -1.31946993907776       -0.09756615685772
C            1.65082155811470        2.35592496963714        0.06241577941325
S           -0.06462458321863        2.61855086460944        0.26014674652383
C            0.15202671615232        4.34789732197711        0.24936345501116
C            1.43077729503101        4.73573521493803        0.10618767307941
C            2.31906597760350        3.62141848653099       -0.00532430222666
H            4.42423275899376        4.23362387629898       -0.24519866138011
H            0.02439836746874        0.40700050621797        0.23315437286534
H           -1.84717242854920       -0.91526006169524        0.52398871919041
H           -5.40625669716090       -0.56312731478937       -2.37638971682035
H           -5.08616397588065        2.04099454904521       -2.62909447027628
H           -3.51215171413534        4.06057734289942       -0.31628049889989
H           -2.53217108337729        3.21882889247962        1.81778731340910
H           -2.74249957371053        0.77700471040427        2.18743629210903
H            0.91526493373859       -5.01385494432386        0.20217108774307
H            2.82576893786882       -4.73079020110286       -0.16240231325716
H            5.23593865376703       -4.46989627213689       -0.36561890095290
H            6.21800045260127       -2.18858814475109       -0.41129019652963
H            4.80758361648302       -0.26002605784739       -0.24641710510651
H           -0.72401083274144        4.96027003666839        0.34830090625101
H            1.75735121742919        5.75958099002889        0.07675109241223
47
 energy: -80.060146787991 gnorm: 0.007613229847 xtb: 6.5.1 (fef0646)
C            3.68395212817950        3.47672186401456       -0.17078914973583
S            4.11982901900663        1.82238143543915       -0.23152602668716
C            2.47637301971341        1.24083154260726       -0.03401807704549
C            2.07835710072765       -0.16052278665479        0.01628038482482
C            0.73924315720983       -0.39761614333618        0.17598195298961
C            0.15887339254946       -1.68340558951589        0.22528021295637
C           -1.23410583485455       -1.78638458482736        0.36439682557673
C           -1.77111773284706       -3.03988497066744        0.28135641591302
S           -3.64811313593150       -3.14613075269545        0.21006382125805
C           -4.10427112250226       -1.66074306288533       -0.15850161176254
C           -4.94521903254279        0.10504910553499       -1.69305406787265
C           -4.78995605736200        1.44309067823502       -1.80250584746652
C           -4.07207262747773        1.91997102270338       -0.64858876532491
C           -3.57603335930132        3.02887896677096       -0.01708540662908
N           -3.01476140037682        2.60798251640351        1.15850255393602
C           -3.12582906571671        1.25130685568552        1.29676986897781
C           -3.77561318723737        0.79304768322667        0.18330207011876
C           -4.27825334808708       -0.39900132369545       -0.48621538434027
C           -1.01272909593879       -4.15423763397207        0.22591186315841
C            0.34697900742959       -4.10092853965749        0.21335443436397
C            0.97210966364607       -2.83394966169026        0.11581431563064
C            2.38889169978739       -2.63119192258364       -0.05531279484800
C            3.24522297282742       -3.73711734066011       -0.17957736325246
C            4.60362182727690       -3.60287690873327       -0.30295850170370
C            5.15597571729997       -2.32762267092930       -0.31824356309795
C            4.34175646898521       -1.22599479615232       -0.21868233639120
C            2.94838526297143       -1.31934297139119       -0.08826594787733
C            1.66422517529418        2.35635389862947        0.06246776168469
S           -0.05151585977230        2.62395907762693        0.25854520851499
C            0.16922899443916        4.35440260059787        0.24266010380714
C            1.44939791299704        4.73691463658037        0.09887924605313
C            2.33626707865439        3.61955358886367       -0.01012767472589
H            4.44293673404988        4.22660854483876       -0.25505687706651
H            0.03659253961055        0.41323651570554        0.25029362852388
H           -1.84587325142165       -0.91406650813157        0.53173591512297
H           -5.42984817309210       -0.55417546098586       -2.38888228888299
H           -5.13896482822380        2.05730901344536       -2.61384620662695
H           -3.56277696101833        4.06571065565027       -0.29033196747638
H           -2.55652816960548        3.20927155529928        1.82411588335237
H           -2.74378604291478        0.76188645000829        2.17063854931308
H            0.92756565465639       -5.01077064507876        0.24475569493571
H            2.82443478572299       -4.72956581914593       -0.17731229394019
H            5.23395627647577       -4.47574906204900       -0.38486358311826
H            6.22354545181194       -2.19717357010667       -0.41132843782772
H            4.82050974861244       -0.26456808782039       -0.23912613644005
H           -0.70382844739425        4.97073536380816        0.33964719671746
H            1.78024887668257        5.75967484309100        0.06808081780986
47
 energy: -80.060508603041 gnorm: 0.007764435087 xtb: 6.5.1 (fef0646)
C            3.70286715553633        3.47194758369868       -0.17810338498757
S            4.13548693778831        1.81514724837373       -0.22915876426447
C            2.49150007987473        1.23789354848701       -0.02540740767950
C            2.08904317022589       -0.16098762957479        0.03153368965296
C            0.74917407432677       -0.39562034603077        0.19240850733195
C            0.16572222968617       -1.67936264914717        0.23725964216245
C           -1.23088259118094       -1.78011679482854        0.36346993606609
C           -1.76040607303074       -3.03446922347994        0.27462555348118
S           -3.64889059241661       -3.14845136941809        0.17683668845949
C           -4.10695351219180       -1.66358942956566       -0.19338785921178
C           -4.97095538579067        0.11129834550888       -1.70262207622524
C           -4.83370585305279        1.45306325254670       -1.79561216864012
C           -4.10733273421437        1.92176640046553       -0.64404156260655
C           -3.61762782930275        3.02872691346134       -0.00428050946638
N           -3.03879049076945        2.59927346603310        1.15949059033307
C           -3.13376665876346        1.23997423907265        1.28294123106376
C           -3.78923970123462        0.78854230900051        0.16991094053460
C           -4.28933786553828       -0.39991035753316       -0.50787264270217
C           -1.00030304039510       -4.14473995588923        0.23739835466176
C            0.35836217194286       -4.09917163340863        0.23785260931524
C            0.97968976034189       -2.83008692975124        0.13334646823924
C            2.39643703264756       -2.63034338835506       -0.04293832189290
C            3.24853954808363       -3.73779883089531       -0.18272253092412
C            4.60664040884466       -3.60486632204802       -0.31285706141658
C            5.16199703080586       -2.33097010204345       -0.31767419421353
C            4.35127358601513       -1.22797959203804       -0.20882970570632
C            2.95813247056442       -1.32011891926721       -0.07509839060947
C            1.68128286584867        2.35589933705720        0.06597439819711
S           -0.03455963145501        2.62654341845246        0.26193593938252
C            0.19068363822982        4.35737078936437        0.23621521794168
C            1.47122730192384        4.73540247029195        0.08900036486628
C            2.35595266188557        3.61604463177338       -0.01524597233792
H            4.46060350487159        4.22193437040895       -0.26890205679980
H            0.05201771344236        0.41969737488466        0.26973937207470
H           -1.84431392614697       -0.90849174891830        0.52350623294327
H           -5.45367254866656       -0.54271272121645       -2.40458719486089
H           -5.19986211510008        2.07444603322587       -2.59380566008472
H           -3.62313565215830        4.06820688374144       -0.26602095530113
H           -2.58194708522042        3.19765416955005        1.82856208695603
H           -2.74000345975761        0.74072036391913        2.14620785092103
H            0.93837352553924       -5.00755829954441        0.28700585134839
H            2.82513798954179       -4.72886525173206       -0.19076255168828
H            5.23382248719127       -4.47860687093256       -0.40897800531572
H            6.22988374522379       -2.20324682182996       -0.41228100819194
H            4.83185346542891       -0.26782324556901       -0.22545101159419
H           -0.67840074449194        4.97945509327864        0.33086241297248
H            1.80566586806596        5.75673779182122        0.05319147321527
47
 energy: -80.060815004681 gnorm: 0.007221770312 xtb: 6.5.1 (fef0646)
C            3.72310657827775        3.46678379153748       -0.18470217404102
S            4.15403045117049        1.80893036611726       -0.22257998894077
C            2.50975800818277        1.23550918601323       -0.01095914475421
C            2.10229687797567       -0.16153817667743        0.04981850539244
C            0.76132938587772       -0.39399541068682        0.20719235048326
C            0.17402473379625       -1.67553338550178        0.24465060438375
C           -1.22582413641977       -1.77290099138146        0.35527240218742
C           -1.75221329383888       -3.02723609479896        0.26801888119077
S           -3.64806787495560       -3.14790039825988        0.14936768798834
C           -4.10873256033670       -1.66575401522947       -0.22638688114047
C           -5.00229636049614        0.11807610647740       -1.71075836506902
C           -4.88261785216570        1.46260112235729       -1.78689425563337
C           -4.14881789374775        1.92376817914634       -0.63739492661365
C           -3.66383520810758        3.02748444182353        0.01075042925144
N           -3.06298601220043        2.58949513868796        1.15957032890544
C           -3.14071984870556        1.22867464104085        1.26619858609592
C           -3.80519635471516        0.78426003829848        0.15599849456547
C           -4.30228335321026       -0.40159063135852       -0.53022694264371
C           -0.98985891100158       -4.13466080926114        0.24979859596197
C            0.36780779578165       -4.09754808847170        0.26140111158950
C            0.98799721542788       -2.82660758421432        0.14976699191589
C            2.40422828148454       -2.63029080508222       -0.02945154668518
C            3.25256919383889       -3.73897992387640       -0.18438386700650
C            4.61014065869979       -3.60672489502269       -0.32344848796742
C            5.16920156929290       -2.33429361217297       -0.31690753953927
C            4.36170183338829       -1.23069043066099       -0.19497361321530
C            2.96863313400874       -1.32179925323073       -0.05893125821406
C            1.70085253850841        2.35566626880125        0.07365322550627
S           -0.01460805622380        2.62947736197810        0.27121378263740
C            0.21486580635344        4.35961612263424        0.22979092003775
C            1.49534848315731        4.73400155149228        0.07658379641651
C            2.37725951274372        3.61276633377874       -0.01977201512660
H            4.47881478461249        4.21813461177788       -0.28499660900269
H            0.06913060322013        0.42541415680120        0.28761333840960
H           -1.84079051432248       -0.89882762531233        0.49919278285507
H           -5.48246872255097       -0.53001819559159       -2.42023933695510
H           -5.26711612645038        2.09077577383510       -2.57070084296690
H           -3.69095954401900        4.06931708293912       -0.24064194983930
H           -2.60615827837827        3.18409671792744        1.83120710593010
H           -2.73216117073812        0.71656405422612        2.11570200425091
H            0.94712486817851       -5.00431681315216        0.32822353757606
H            2.82732803077461       -4.72897591069011       -0.20143036609041
H            5.23502300510590       -4.48035463565613       -0.43597254105712
H            6.23720105182425       -2.20879059997535       -0.41467543101928
H            4.84339647088965       -0.27140605068209       -0.20414905660258
H           -0.65065492399092        4.98735773488630        0.32098797975797
H            1.83247905700127        5.75382115577013        0.03123811223370
47
 energy: -80.061052954613 gnorm: 0.006588493633 xtb: 6.5.1 (fef0646)