      -----------------------------------------------------------      
     |                   =====================                   |     
     |                           x T B                           |     
     |                   =====================                   |     
     |                         S. Grimme                         |     
     |          Mulliken Center for Theoretical Chemistry        |     
     |                    University of Bonn                     |     
      -----------------------------------------------------------      

   * xtb version 6.7.1 (edcfbbe) compiled by 'albert@albert-system' on 2024-07-22

   xtb is free software: you can redistribute it and/or modify it under
   the terms of the GNU Lesser General Public License as published by
   the Free Software Foundation, either version 3 of the License, or
   (at your option) any later version.
   
   xtb is distributed in the hope that it will be useful,
   but WITHOUT ANY WARRANTY; without even the implied warranty of
   MERCHANTABILITY or FITNESS FOR A PARTICULAR PURPOSE.  See the
   GNU Lesser General Public License for more details.
   
   Cite this work as:
   * C. Bannwarth, E. Caldeweyher, S. Ehlert, A. Hansen, P. Pracht,
     J. Seibert, S. Spicher, S. Grimme, WIREs Comput. Mol. Sci., 2020, 11,
     e01493. DOI: 10.1002/wcms.1493
   
   for GFN2-xTB:
   * C. Bannwarth, S. Ehlert and S. Grimme., J. Chem. Theory Comput., 2019,
     15, 1652-1671. DOI: 10.1021/acs.jctc.8b01176
   for GFN1-xTB:
   * S. Grimme, C. Bannwarth, P. Shushkov, J. Chem. Theory Comput., 2017,
     13, 1989-2009. DOI: 10.1021/acs.jctc.7b00118
   for GFN0-xTB:
   * P. Pracht, E. Caldeweyher, S. Ehlert, S. Grimme, ChemRxiv, 2019, preprint.
     DOI: 10.26434/chemrxiv.8326202.v1
   for GFN-FF:
   * S. Spicher and S. Grimme, Angew. Chem. Int. Ed., 2020, 59, 15665-15673.
     DOI: 10.1002/anie.202004239
   
   for ALPB and GBSA implicit solvation:
   * S. Ehlert, M. Stahn, S. Spicher, S. Grimme, J. Chem. Theory Comput.,
     2021, 17, 4250-4261. DOI: 10.1021/acs.jctc.1c00471
   
   for ddCOSMO and CPCM-X implicit solvation:
   * M. Stahn, S. Ehlert, S. Grimme, J. Phys. Chem. A,
     2023, XX, XXXX-XXXX. DOI: 10.1021/acs.jpca.3c04382
   
   for DFT-D4:
   * E. Caldeweyher, C. Bannwarth and S. Grimme, J. Chem. Phys., 2017,
     147, 034112. DOI: 10.1063/1.4993215
   * E. Caldeweyher, S. Ehlert, A. Hansen, H. Neugebauer, S. Spicher,
     C. Bannwarth and S. Grimme, J. Chem. Phys., 2019, 150, 154122.
     DOI: 10.1063/1.5090222
   * E. Caldeweyher, J.-M. Mewes, S. Ehlert and S. Grimme, Phys. Chem. Chem. Phys.
     2020, 22, 8499-8512. DOI: 10.1039/D0CP00502A
   
   for sTDA-xTB:
   * S. Grimme and C. Bannwarth, J. Chem. Phys., 2016, 145, 054103.
     DOI: 10.1063/1.4959605
   
   in the mass-spec context:
   * V. Asgeirsson, C. Bauer and S. Grimme, Chem. Sci., 2017, 8, 4879.
     DOI: 10.1039/c7sc00601b
   * J. Koopman and S. Grimme, ACS Omega 2019, 4, 12, 15120-15133.
     DOI: 10.1021/acsomega.9b02011
   
   for metadynamics refer to:
   * S. Grimme, J. Chem. Theory Comput., 2019, 155, 2847-2862
     DOI: 10.1021/acs.jctc.9b00143
   
   for SPH calculations refer to:
   * S. Spicher and S. Grimme, J. Chem. Theory Comput., 2021, 17, 1701-1714
     DOI: 10.1021/acs.jctc.0c01306
   
   for ONIOM refer to:
   * C. Plett, A. Katbashev, S. Ehlert, S. Grimme, M. Bursch,
     Phys. Chem. Chem. Phys., 2023, 25, 17860-17868. DOI: 10.1039/D3CP02178E
   
   for DIPRO refer to:
   * J. Kohn, N. Gildemeister, S. Grimme, D. Fazzi, A. Hansen,
     J. Chem. Phys., 2023, just accepted.
   
   for PTB refer to:
   * S. Grimme, M. Mueller, A. Hansen, J. Chem. Phys., 2023, 158, 124111.
     DOI: 10.1063/5.0137838
   
   with help from (in alphabetical order)
   P. Atkinson, C. Bannwarth, F. Bohle, G. Brandenburg, E. Caldeweyher
   M. Checinski, S. Dohm, S. Ehlert, S. Ehrlich, I. Gerasimov, C. Hölzer
   A. Katbashev, J. Kohn, J. Koopman, C. Lavigne, S. Lehtola, F. März, M. Müller,
   F. Musil, H. Neugebauer, J. Pisarek, C. Plett, P. Pracht, F. Pultar,
   J. Seibert, P. Shushkov, S. Spicher, M. Stahn, M. Steiner, T. Strunk,
   J. Stückrath, T. Rose, and J. Unsleber
   
 * started run on 2024/08/07 at 20:42:15.840     
   ID    Z sym.   atoms
    1    6 C      1-3
    2    8 O      4
    3    1 H      5-10

           -------------------------------------------------
          |                Calculation Setup                |
           -------------------------------------------------

          program call               : xtb crest_best.xyz --gfn 2 --alpb toluene --opt vtight -c 0 --iterations 40
          coordinate file            : crest_best.xyz
          omp threads                :                     8


           -------------------------------------------------
          |                 G F N 2 - x T B                 |
           -------------------------------------------------

        Reference                      10.1021/acs.jctc.8b01176
      * Hamiltonian:
        H0-scaling (s, p, d)           1.850000    2.230000    2.230000
        zeta-weighting                 0.500000
      * Dispersion:
        s8                             2.700000
        a1                             0.520000
        a2                             5.000000
        s9                             5.000000
      * Repulsion:
        kExp                           1.500000    1.000000
        rExp                           1.000000
      * Coulomb:
        alpha                          2.000000
        third order                    shell-resolved
        anisotropic                    true
        a3                             3.000000
        a5                             4.000000
        cn-shift                       1.200000
        cn-exp                         4.000000
        max-rad                        5.000000

      * Solvation model:               ALPB
        Solvent                        toluene
        Parameter file                 internal GFN2-xTB/ALPB
        Dielectric constant                7.0000E+00
        Reference state                gsolv [1 M gas/solution]
        Free energy shift                  2.2081E-03 Eh       1.3856E+00 kcal/mol
        Temperature                        2.9815E+02 K
        Density                            8.6700E-01 kg/L
        Solvent mass                       7.8110E+01 g/mol
        Interaction kernel             P16
        Born radius scaling (c1)           1.7172E+00
        Born radii integrator          GBOBC
        Born offset                        0.0000E+00 a0       0.0000E+00 AA
        H-bond correction              false
        Ion screening                  false
        Surface tension                    1.0000E-05 Eh       1.5569E+01 dyn/cm
        Grid points                               230 per atom

          ...................................................
          :                      SETUP                      :
          :.................................................:
          :  # basis functions                  22          :
          :  # atomic orbitals                  22          :
          :  # shells                           14          :
          :  # electrons                        24          :
          :  max. iterations                    40          :
          :  Hamiltonian                  GFN2-xTB          :
          :  restarted?                      false          :
          :  GBSA solvation                   true          :
          :  PC potential                    false          :
          :  electronic temp.          300.0000000     K    :
          :  accuracy                    1.0000000          :
          :  -> integral cutoff          0.2500000E+02      :
          :  -> integral neglect         0.1000000E-07      :
          :  -> SCF convergence          0.1000000E-05 Eh   :
          :  -> wf. convergence          0.1000000E-03 e    :
          :  Broyden damping             0.4000000          :
          :  net charge                          0          :
          :  unpaired electrons                  0          :
          ...................................................

 iter      E             dE          RMSdq      gap      omega  full diag
   1    -13.6592082 -0.136592E+02  0.453E+00    4.96       0.0  T
   2    -13.7055150 -0.463068E-01  0.217E+00    3.82       1.0  T
   3    -13.7109174 -0.540238E-02  0.142E+00    4.31       1.0  T
   4    -13.7133760 -0.245860E-02  0.142E-01    4.09       1.0  T
   5    -13.7134458 -0.698657E-04  0.785E-02    4.12       1.0  T
   6    -13.7134495 -0.361655E-05  0.180E-02    4.11       1.8  T
   7    -13.7134498 -0.327081E-06  0.363E-03    4.12       8.7  T
   8    -13.7134498  0.212662E-07  0.267E-03    4.12      11.9  T
   9    -13.7134498 -0.397960E-07  0.337E-04    4.12      93.7  T
  10    -13.7134498 -0.619369E-09  0.155E-04    4.12     204.3  T

   *** convergence criteria satisfied after 10 iterations ***

         #    Occupation            Energy/Eh            Energy/eV
      -------------------------------------------------------------
         1        2.0000           -0.7128521             -19.3977
       ...           ...                  ...                  ...
         6        2.0000           -0.5377574             -14.6331
         7        2.0000           -0.5230515             -14.2330
         8        2.0000           -0.4850868             -13.1999
         9        2.0000           -0.4745390             -12.9129
        10        2.0000           -0.4713661             -12.8265
        11        2.0000           -0.4679215             -12.7328
        12        2.0000           -0.3994093             -10.8685 (HOMO)
        13                         -0.2481514              -6.7525 (LUMO)
        14                          0.0907056               2.4682
        15                          0.1453930               3.9563
        16                          0.1692081               4.6044
        17                          0.1783023               4.8519
       ...                                ...                  ...
        22                          0.6329397              17.2232
      -------------------------------------------------------------
                  HL-Gap            0.1512579 Eh            4.1159 eV
             Fermi-level           -0.3237804 Eh           -8.8105 eV

 SCC (total)                   0 d,  0 h,  0 min,  0.009 sec
 SCC setup                      ...        0 min,  0.001 sec ( 11.612%)
 Dispersion                     ...        0 min,  0.000 sec (  2.601%)
 classical contributions        ...        0 min,  0.000 sec (  3.058%)
 integral evaluation            ...        0 min,  0.000 sec (  5.367%)
 iterations                     ...        0 min,  0.006 sec ( 61.186%)
 molecular gradient             ...        0 min,  0.001 sec ( 14.474%)
 printout                       ...        0 min,  0.000 sec (  1.280%)

         :::::::::::::::::::::::::::::::::::::::::::::::::::::
         ::                     SUMMARY                     ::
         :::::::::::::::::::::::::::::::::::::::::::::::::::::
         :: total energy             -13.538742886030 Eh    ::
         :: total w/o Gsasa/hb       -13.534095605461 Eh    ::
         :: gradient norm              0.029912075432 Eh/a0 ::
         :: HOMO-LUMO gap              4.115936700022 eV    ::
         ::.................................................::
         :: SCC energy               -13.713448264615 Eh    ::
         :: -> isotropic ES            0.031732165831 Eh    ::
         :: -> anisotropic ES          0.001633441834 Eh    ::
         :: -> anisotropic XC          0.005385663466 Eh    ::
         :: -> dispersion             -0.003888381678 Eh    ::
         :: -> Gsolv                  -0.007303638503 Eh    ::
         ::    -> Gelec               -0.002656357934 Eh    ::
         ::    -> Gsasa               -0.006855423708 Eh    ::
         ::    -> Ghb                  0.000000000000 Eh    ::
         ::    -> Gshift               0.002208143139 Eh    ::
         :: repulsion energy           0.174705378585 Eh    ::
         :: add. restraining           0.000000000000 Eh    ::
         :: total charge              -0.000000000000 e     ::
         :::::::::::::::::::::::::::::::::::::::::::::::::::::

      ----------------------------------------------------------- 
     |                   =====================                   |
     |                        A N C O P T                        |
     |                   =====================                   |
     |               Approximate Normal Coordinate               |
     |                Rational Function Optimizer                |
      ----------------------------------------------------------- 
      ----------------------------------------------------------- 
     |                   =====================                   |
     |                        A N C O P T                        |
     |                   =====================                   |
     |               Approximate Normal Coordinate               |
     |                Rational Function Optimizer                |
      ----------------------------------------------------------- 

          ...................................................
          :                      SETUP                      :
          :.................................................:
          :   optimization level         verytight          :
          :   max. optcycles                   200          :
          :   ANC micro-cycles                  20          :
          :   degrees of freedom                24          :
          :.................................................:
          :   RF solver                   davidson          :
          :   write xtbopt.log                true          :
          :   linear?                        false          :
          :   energy convergence         0.1000000E-06 Eh   :
          :   grad. convergence          0.2000000E-03 Eh/α :
          :   maxmium RF displ.          1.0000000          :
          :   Hlow (freq-cutoff)         0.1000000E-01      :
          :   Hmax (freq-cutoff)         5.0000000          :
          :   S6 in model hess.         20.0000000          :
          ...................................................

generating ANC from exact Hessian ...
Using Lindh-Hessian (1995)
 Shifting diagonal of input Hessian by   7.413833769743562E-005
 Lowest  eigenvalues of input Hessian
    0.000000    0.000000    0.000000    0.000000    0.000000    0.000000
    0.010000    0.010860    0.020784    0.050229    0.061424    0.063666
    0.065802    0.092458    0.118278    0.124011    0.130510    0.130569
 Highest eigenvalues
    1.102753    1.113394    1.131142    1.158867    1.471336    2.171716
 

........................................................................
.............................. CYCLE    1 ..............................
........................................................................

 iter      E             dE          RMSdq      gap      omega  full diag
   1    -13.7134498 -0.137134E+02  0.128E-05    4.12       0.0  T
   2    -13.7134498 -0.175859E-12  0.611E-06    4.12    5175.6  T
   3    -13.7134498 -0.106581E-13  0.382E-06    4.12    8287.0  T
     SCC iter.                  ...        0 min,  0.000 sec
     gradient                   ...        0 min,  0.001 sec
 * total energy  :   -13.5387429 Eh     change       -0.1322498E-09 Eh
   gradient norm :     0.0299117 Eh/α   predicted     0.0000000E+00 (-100.00%)
   displ. norm   :     0.1438068 α      lambda       -0.2035599E-02
   maximum displ.:     0.0947724 α      in ANC's #3, #2, #13, ...

........................................................................
.............................. CYCLE    2 ..............................
........................................................................

 iter      E             dE          RMSdq      gap      omega  full diag
   1    -13.7102566 -0.137103E+02  0.217E-01    4.05       0.0  T
   2    -13.7102654 -0.882810E-05  0.130E-01    4.07       1.0  T
   3    -13.7102574  0.803386E-05  0.419E-02    4.05       1.0  T
   4    -13.7102687 -0.113303E-04  0.610E-03    4.06       5.2  T
   5    -13.7102688 -0.310808E-07  0.196E-03    4.06      16.2  T
   6    -13.7102688 -0.209242E-08  0.736E-04    4.06      42.9  T
   7    -13.7102688 -0.388688E-09  0.163E-04    4.06     194.4  T
     SCC iter.                  ...        0 min,  0.001 sec
     gradient                   ...        0 min,  0.001 sec
 * total energy  :   -13.5399494 Eh     change       -0.1206519E-02 Eh
   gradient norm :     0.0105694 Eh/α   predicted    -0.1038847E-02 ( -13.90%)
   displ. norm   :     0.1273013 α      lambda       -0.3269404E-03
   maximum displ.:     0.1038829 α      in ANC's #2, #3, #1, ...

........................................................................
.............................. CYCLE    3 ..............................
........................................................................

 iter      E             dE          RMSdq      gap      omega  full diag
   1    -13.7099713 -0.137100E+02  0.753E-02    4.06       0.0  T
   2    -13.7099739 -0.266313E-05  0.447E-02    4.07       1.0  T
   3    -13.7099734  0.498373E-06  0.167E-02    4.06       1.9  T
   4    -13.7099745 -0.105421E-05  0.312E-03    4.07      10.1  T
   5    -13.7099745 -0.295985E-07  0.122E-03    4.07      26.0  T
   6    -13.7099745 -0.776836E-09  0.406E-04    4.07      77.9  T
   7    -13.7099745 -0.190578E-09  0.831E-05    4.07     380.4  T
     SCC iter.                  ...        0 min,  0.001 sec
     gradient                   ...        0 min,  0.001 sec
 * total energy  :   -13.5401801 Eh     change       -0.2307275E-03 Eh
   gradient norm :     0.0050454 Eh/α   predicted    -0.1661189E-03 ( -28.00%)
   displ. norm   :     0.1565532 α      lambda       -0.1967401E-03
   maximum displ.:     0.1468941 α      in ANC's #2, #3, #7, ...

........................................................................
.............................. CYCLE    4 ..............................
........................................................................

 iter      E             dE          RMSdq      gap      omega  full diag
   1    -13.7101342 -0.137101E+02  0.696E-02    4.08       0.0  T
   2    -13.7101363 -0.201969E-05  0.411E-02    4.08       1.0  T
   3    -13.7101361  0.209927E-06  0.120E-02    4.08       2.6  T
   4    -13.7101365 -0.440824E-06  0.326E-03    4.08       9.7  T
   5    -13.7101365 -0.434139E-07  0.970E-04    4.08      32.6  T
   6    -13.7101365 -0.821149E-09  0.295E-04    4.08     107.0  T
     SCC iter.                  ...        0 min,  0.004 sec
     gradient                   ...        0 min,  0.001 sec
 * total energy  :   -13.5403298 Eh     change       -0.1496723E-03 Eh
   gradient norm :     0.0045917 Eh/α   predicted    -0.1007811E-03 ( -32.67%)
   displ. norm   :     0.1234866 α      lambda       -0.1280045E-03
   maximum displ.:     0.1200519 α      in ANC's #2, #3, #7, ...

........................................................................
.............................. CYCLE    5 ..............................
........................................................................

 iter      E             dE          RMSdq      gap      omega  full diag
   1    -13.7106559 -0.137107E+02  0.461E-02    4.09       0.0  T
   2    -13.7106564 -0.532875E-06  0.273E-02    4.09       1.2  T
   3    -13.7106564 -0.242187E-07  0.407E-03    4.09       7.8  T
   4    -13.7106565 -0.199248E-07  0.129E-03    4.09      24.6  T
   5    -13.7106565 -0.334494E-08  0.489E-04    4.09      64.6  T
   6    -13.7106565 -0.989861E-09  0.153E-04    4.09     206.3  T
     SCC iter.                  ...        0 min,  0.001 sec
     gradient                   ...        0 min,  0.001 sec
 * total energy  :   -13.5404451 Eh     change       -0.1152866E-03 Eh
   gradient norm :     0.0050986 Eh/α   predicted    -0.6497905E-04 ( -43.64%)
   displ. norm   :     0.1295215 α      lambda       -0.1473465E-03
   maximum displ.:     0.1263122 α      in ANC's #2, #16, #1, ...

........................................................................
.............................. CYCLE    6 ..............................
........................................................................

 iter      E             dE          RMSdq      gap      omega  full diag
   1    -13.7114417 -0.137114E+02  0.470E-02    4.10       0.0  T
   2    -13.7114419 -0.196900E-06  0.282E-02    4.09       1.1  T
   3    -13.7114419  0.392318E-07  0.360E-03    4.10       8.8  T
   4    -13.7114420 -0.787091E-07  0.102E-03    4.09      30.9  T
   5    -13.7114420 -0.187616E-08  0.501E-04    4.09      63.2  T
   6    -13.7114420 -0.216273E-09  0.793E-05    4.09     398.8  T
     SCC iter.                  ...        0 min,  0.001 sec
     gradient                   ...        0 min,  0.001 sec
 * total energy  :   -13.5405763 Eh     change       -0.1312479E-03 Eh
   gradient norm :     0.0043081 Eh/α   predicted    -0.7491206E-04 ( -42.92%)
   displ. norm   :     0.1620322 α      lambda       -0.1627985E-03
   maximum displ.:     0.1598943 α      in ANC's #2, #16, #4, ...

........................................................................
.............................. CYCLE    7 ..............................
........................................................................

 iter      E             dE          RMSdq      gap      omega  full diag
   1    -13.7114651 -0.137115E+02  0.560E-02    4.09       0.0  T
   2    -13.7114654 -0.238947E-06  0.339E-02    4.09       1.0  T
   3    -13.7114653  0.562549E-07  0.405E-03    4.10       7.8  T
   4    -13.7114654 -0.111007E-06  0.123E-03    4.09      25.6  T
   5    -13.7114654 -0.339560E-08  0.507E-04    4.09      62.3  T
   6    -13.7114654 -0.231774E-09  0.126E-04    4.09     251.9  T
     SCC iter.                  ...        0 min,  0.001 sec
     gradient                   ...        0 min,  0.001 sec
 * total energy  :   -13.5407178 Eh     change       -0.1414438E-03 Eh
   gradient norm :     0.0030439 Eh/α   predicted    -0.8353697E-04 ( -40.94%)
   displ. norm   :     0.1864655 α      lambda       -0.1524457E-03
   maximum displ.:     0.1825226 α      in ANC's #2, #16, #1, ...

........................................................................
.............................. CYCLE    8 ..............................
........................................................................

 iter      E             dE          RMSdq      gap      omega  full diag
   1    -13.7109846 -0.137110E+02  0.645E-02    4.09       0.0  T
   2    -13.7109850 -0.388224E-06  0.390E-02    4.09       1.0  T
   3    -13.7109850 -0.348148E-07  0.283E-03    4.09      11.2  T
   4    -13.7109850 -0.187457E-07  0.119E-03    4.09      26.5  T
   5    -13.7109850 -0.137332E-08  0.542E-04    4.09      58.4  T
   6    -13.7109850 -0.106006E-08  0.115E-04    4.09     275.4  T
     SCC iter.                  ...        0 min,  0.001 sec
     gradient                   ...        0 min,  0.001 sec
 * total energy  :   -13.5408460 Eh     change       -0.1282600E-03 Eh
   gradient norm :     0.0035981 Eh/α   predicted    -0.7887579E-04 ( -38.50%)
   displ. norm   :     0.3882517 α      lambda       -0.2449335E-03
   maximum displ.:     0.3800610 α      in ANC's #2, #16, #1, ...

........................................................................
.............................. CYCLE    9 ..............................
........................................................................

 iter      E             dE          RMSdq      gap      omega  full diag
   1    -13.7081938 -0.137082E+02  0.135E-01    4.08       0.0  T
   2    -13.7081959 -0.209484E-05  0.810E-02    4.08       1.0  T
   3    -13.7081961 -0.208869E-06  0.658E-03    4.08       4.8  T
   4    -13.7081962 -0.530300E-07  0.251E-03    4.08      12.6  T
   5    -13.7081962  0.882332E-09  0.941E-04    4.08      33.6  T
   6    -13.7081962 -0.471472E-08  0.262E-04    4.08     120.6  T
     SCC iter.                  ...        0 min,  0.001 sec
     gradient                   ...        0 min,  0.001 sec
 * total energy  :   -13.5409444 Eh     change       -0.9839863E-04 Eh
   gradient norm :     0.0103213 Eh/α   predicted    -0.1409189E-03 (  43.21%)
   displ. norm   :     0.0343477 α      lambda       -0.1616645E-03
   maximum displ.:     0.0292773 α      in ANC's #2, #16, #3, ...

........................................................................
.............................. CYCLE   10 ..............................
........................................................................

 iter      E             dE          RMSdq      gap      omega  full diag
   1    -13.7114915 -0.137115E+02  0.404E-02    4.09       0.0  T
   2    -13.7114932 -0.170695E-05  0.220E-02    4.08       1.4  T
   3    -13.7114933 -0.855266E-07  0.775E-03    4.08       4.1  T
   4    -13.7114933 -0.140936E-07  0.163E-03    4.08      19.4  T
   5    -13.7114933 -0.151032E-08  0.649E-04    4.08      48.7  T
   6    -13.7114933 -0.731395E-09  0.310E-04    4.08     102.0  T
     SCC iter.                  ...        0 min,  0.001 sec
     gradient                   ...        0 min,  0.001 sec
 * total energy  :   -13.5410353 Eh     change       -0.9083654E-04 Eh
   gradient norm :     0.0040239 Eh/α   predicted    -0.8092894E-04 ( -10.91%)
   displ. norm   :     0.1565981 α      lambda       -0.7539013E-04
   maximum displ.:     0.1474441 α      in ANC's #2, #16, #1, ...

........................................................................
.............................. CYCLE   11 ..............................
........................................................................

 iter      E             dE          RMSdq      gap      omega  full diag
   1    -13.7118946 -0.137119E+02  0.533E-02    4.08       0.0  T
   2    -13.7118949 -0.271927E-06  0.319E-02    4.08       1.0  T
   3    -13.7118949  0.486065E-07  0.412E-03    4.08       7.7  T
   4    -13.7118949 -0.897243E-07  0.114E-03    4.08      27.8  T
   5    -13.7118950 -0.446476E-08  0.485E-04    4.08      65.2  T
   6    -13.7118950 -0.136700E-09  0.102E-04    4.08     310.0  T
     SCC iter.                  ...        0 min,  0.002 sec
     gradient                   ...        0 min,  0.001 sec
 * total energy  :   -13.5410969 Eh     change       -0.6161305E-04 Eh
   gradient norm :     0.0033322 Eh/α   predicted    -0.3862217E-04 ( -37.31%)
   displ. norm   :     0.2999742 α      lambda       -0.1057805E-03
   maximum displ.:     0.2846897 α      in ANC's #2, #16, #1, ...

........................................................................
.............................. CYCLE   12 ..............................
........................................................................

 iter      E             dE          RMSdq      gap      omega  full diag
   1    -13.7104442 -0.137104E+02  0.104E-01    4.08       0.0  T
   2    -13.7104452 -0.961095E-06  0.626E-02    4.09       1.0  T
   3    -13.7104450  0.190113E-06  0.805E-03    4.08       3.9  T
   4    -13.7104454 -0.414156E-06  0.303E-03    4.08      10.4  T
   5    -13.7104455 -0.266156E-07  0.686E-04    4.08      46.1  T
   6    -13.7104455 -0.232692E-09  0.274E-04    4.08     115.3  T
     SCC iter.                  ...        0 min,  0.001 sec
     gradient                   ...        0 min,  0.001 sec
 * total energy  :   -13.5411448 Eh     change       -0.4792233E-04 Eh
   gradient norm :     0.0047426 Eh/α   predicted    -0.5764748E-04 (  20.29%)
   displ. norm   :     0.0246250 α      lambda       -0.5799469E-04
   maximum displ.:     0.0183593 α      in ANC's #1, #2, #16, ...

........................................................................
.............................. CYCLE   13 ..............................
........................................................................

 iter      E             dE          RMSdq      gap      omega  full diag
   1    -13.7124679 -0.137125E+02  0.263E-02    4.09       0.0  T
   2    -13.7124688 -0.894750E-06  0.142E-02    4.09       2.2  T
   3    -13.7124688 -0.222687E-07  0.559E-03    4.09       5.7  T
   4    -13.7124689 -0.922924E-08  0.100E-03    4.09      31.5  T
   5    -13.7124689 -0.212138E-08  0.582E-04    4.09      54.3  T
   6    -13.7124689 -0.339721E-09  0.120E-04    4.09     264.5  T
     SCC iter.                  ...        0 min,  0.001 sec
     gradient                   ...        0 min,  0.001 sec
 * total energy  :   -13.5411776 Eh     change       -0.3276127E-04 Eh
   gradient norm :     0.0015167 Eh/α   predicted    -0.2901457E-04 ( -11.44%)
   displ. norm   :     0.1931254 α      lambda       -0.2577232E-04
   maximum displ.:     0.1686915 α      in ANC's #2, #1, #16, ...

........................................................................
.............................. CYCLE   14 ..............................
........................................................................

 iter      E             dE          RMSdq      gap      omega  full diag
   1    -13.7121944 -0.137122E+02  0.705E-02    4.09       0.0  T
   2    -13.7121951 -0.661077E-06  0.421E-02    4.09       1.0  T
   3    -13.7121950  0.577330E-07  0.571E-03    4.09       5.5  T
   4    -13.7121952 -0.151660E-06  0.202E-03    4.09      15.7  T
   5    -13.7121952 -0.133478E-07  0.750E-04    4.09      42.2  T
   6    -13.7121952 -0.448649E-09  0.253E-04    4.09     124.8  T
     SCC iter.                  ...        0 min,  0.001 sec
     gradient                   ...        0 min,  0.001 sec
 * total energy  :   -13.5411967 Eh     change       -0.1915358E-04 Eh
   gradient norm :     0.0040696 Eh/α   predicted    -0.1310243E-04 ( -31.59%)
   displ. norm   :     0.1273681 α      lambda       -0.3491838E-04
   maximum displ.:     0.1141553 α      in ANC's #2, #16, #1, ...

........................................................................
.............................. CYCLE   15 ..............................
........................................................................

 iter      E             dE          RMSdq      gap      omega  full diag
   1    -13.7120959 -0.137121E+02  0.466E-02    4.09       0.0  T
   2    -13.7120961 -0.216134E-06  0.279E-02    4.09       1.1  T
   3    -13.7120961 -0.732490E-08  0.261E-03    4.09      12.1  T
   4    -13.7120962 -0.226093E-07  0.100E-03    4.09      31.6  T
   5    -13.7120962 -0.217600E-08  0.468E-04    4.09      67.6  T
   6    -13.7120962 -0.298840E-09  0.109E-04    4.09     290.5  T
     SCC iter.                  ...        0 min,  0.001 sec
     gradient                   ...        0 min,  0.001 sec
 * total energy  :   -13.5412186 Eh     change       -0.2191989E-04 Eh
   gradient norm :     0.0028156 Eh/α   predicted    -0.1774283E-04 ( -19.06%)
   displ. norm   :     0.0946915 α      lambda       -0.3020679E-04
   maximum displ.:     0.0714060 α      in ANC's #2, #1, #16, ...

........................................................................
.............................. CYCLE   16 ..............................
........................................................................

 iter      E             dE          RMSdq      gap      omega  full diag
   1    -13.7127191 -0.137127E+02  0.385E-02    4.09       0.0  T
   2    -13.7127192 -0.994005E-07  0.230E-02    4.09       1.4  T
   3    -13.7127192 -0.191869E-07  0.166E-03    4.09      19.0  T
   4    -13.7127192 -0.649750E-08  0.908E-04    4.09      34.8  T
   5    -13.7127192 -0.204294E-08  0.325E-04    4.09      97.3  T
     SCC iter.                  ...        0 min,  0.001 sec
     gradient                   ...        0 min,  0.001 sec
 * total energy  :   -13.5412419 Eh     change       -0.2322854E-04 Eh
   gradient norm :     0.0017638 Eh/α   predicted    -0.1523820E-04 ( -34.40%)
   displ. norm   :     0.5120449 α      lambda       -0.5350797E-04
   maximum displ.:     0.4161384 α      in ANC's #2, #1, #16, ...

........................................................................
.............................. CYCLE   17 ..............................
........................................................................

 iter      E             dE          RMSdq      gap      omega  full diag
   1    -13.7072817 -0.137073E+02  0.203E-01    4.06       0.0  T
   2    -13.7072902 -0.848009E-05  0.120E-01    4.07       1.0  T
   3    -13.7072908 -0.619557E-06  0.151E-02    4.06       2.1  T
   4    -13.7072910 -0.229973E-06  0.467E-03    4.06       6.8  T
   5    -13.7072910  0.284234E-08  0.198E-03    4.06      16.0  T
   6    -13.7072910 -0.175073E-07  0.638E-04    4.06      49.5  T
   7    -13.7072910 -0.314397E-09  0.142E-04    4.06     222.5  T
     SCC iter.                  ...        0 min,  0.002 sec
     gradient                   ...        0 min,  0.001 sec
 * total energy  :   -13.5410564 Eh     change        0.1855009E-03 Eh
   gradient norm :     0.0134177 Eh/α   predicted    -0.2986950E-04 (-116.10%)
   displ. norm   :     0.2356664 α      lambda       -0.4617531E-03
   maximum displ.:     0.2056673 α      in ANC's #2, #16, #1, ...

........................................................................
.............................. CYCLE   18 ..............................
........................................................................

 iter      E             dE          RMSdq      gap      omega  full diag
   1    -13.7123262 -0.137123E+02  0.103E-01    4.08       0.0  T
   2    -13.7123305 -0.427778E-05  0.595E-02    4.08       1.0  T
   3    -13.7123307 -0.210089E-06  0.125E-02    4.08       2.5  T
   4    -13.7123308 -0.122442E-06  0.334E-03    4.08       9.5  T
   5    -13.7123309 -0.152717E-07  0.163E-03    4.08      19.4  T
   6    -13.7123309 -0.729314E-08  0.539E-04    4.08      58.7  T
   7    -13.7123309 -0.151619E-09  0.633E-05    4.08     499.4  T
     SCC iter.                  ...        0 min,  0.001 sec
     gradient                   ...        0 min,  0.001 sec
 * total energy  :   -13.5412751 Eh     change       -0.2187645E-03 Eh
   gradient norm :     0.0031222 Eh/α   predicted    -0.2437013E-03 (  11.40%)
   displ. norm   :     0.0181818 α      lambda       -0.1502677E-04
   maximum displ.:     0.0094861 α      in ANC's #1, #2, #4, ...

........................................................................
.............................. CYCLE   19 ..............................
........................................................................

 iter      E             dE          RMSdq      gap      omega  full diag
   1    -13.7128350 -0.137128E+02  0.140E-02    4.08       0.0  T
   2    -13.7128352 -0.135433E-06  0.801E-03    4.08       3.9  T
   3    -13.7128352 -0.338956E-08  0.226E-03    4.08      14.0  T
   4    -13.7128352 -0.355328E-08  0.494E-04    4.08      64.0  T
   5    -13.7128352 -0.643407E-09  0.262E-04    4.08     120.6  T
     SCC iter.                  ...        0 min,  0.001 sec
     gradient                   ...        0 min,  0.001 sec
 * total energy  :   -13.5412859 Eh     change       -0.1080330E-04 Eh
   gradient norm :     0.0015991 Eh/α   predicted    -0.7516924E-05 ( -30.42%)
   displ. norm   :     0.0764711 α      lambda       -0.1259088E-04
   maximum displ.:     0.0476048 α      in ANC's #1, #2, #4, ...

........................................................................
.............................. CYCLE   20 ..............................
........................................................................

 iter      E             dE          RMSdq      gap      omega  full diag
   1    -13.7135236 -0.137135E+02  0.420E-02    4.08       0.0  T
   2    -13.7135240 -0.342969E-06  0.247E-02    4.08       1.3  T
   3    -13.7135240 -0.113146E-08  0.353E-03    4.08       9.0  T
   4    -13.7135240 -0.367932E-07  0.119E-03    4.08      26.6  T
   5    -13.7135240 -0.400969E-08  0.587E-04    4.08      53.9  T
   6    -13.7135240 -0.330823E-09  0.136E-04    4.08     231.7  T
     SCC iter.                  ...        0 min,  0.001 sec
     gradient                   ...        0 min,  0.001 sec
 * total energy  :   -13.5412976 Eh     change       -0.1169169E-04 Eh
   gradient norm :     0.0019955 Eh/α   predicted    -0.6312542E-05 ( -46.01%)
   displ. norm   :     0.1528573 α      lambda       -0.1558673E-04
   maximum displ.:     0.0927008 α      in ANC's #1, #2, #16, ...
 * RMSD in coord.:     0.8030279 α      energy gain  -0.2554750E-02 Eh

generating ANC from exact Hessian ...
Using Lindh-Hessian (1995)
 Shifting diagonal of input Hessian by   1.014146179621075E-003
 Lowest  eigenvalues of input Hessian
    0.000000    0.000000    0.000000    0.000000    0.000000    0.000000
    0.010000    0.011352    0.020090    0.049666    0.061390    0.061472
    0.063722    0.086677    0.119268    0.128306    0.134051    0.134514
 Highest eigenvalues
    1.106831    1.115722    1.140625    1.178108    1.393923    2.146599
 

........................................................................
.............................. CYCLE   21 ..............................
........................................................................

 iter      E             dE          RMSdq      gap      omega  full diag
   1    -13.7130630 -0.137131E+02  0.750E-02    4.08       0.0  T
   2    -13.7130633 -0.319892E-06  0.445E-02    4.08       1.0  T
   3    -13.7130633 -0.232490E-07  0.417E-03    4.08       7.6  T
   4    -13.7130634 -0.907401E-07  0.193E-03    4.08      16.4  T
   5    -13.7130634 -0.576475E-08  0.588E-04    4.08      53.8  T
   6    -13.7130634 -0.423086E-09  0.250E-04    4.08     126.3  T
     SCC iter.                  ...        0 min,  0.001 sec
     gradient                   ...        0 min,  0.001 sec
 * total energy  :   -13.5413155 Eh     change       -0.1790210E-04 Eh
   gradient norm :     0.0017705 Eh/α   predicted     0.0000000E+00 (-100.00%)
   displ. norm   :     0.0208267 α      lambda       -0.7082722E-05
   maximum displ.:     0.0173162 α      in ANC's #1, #2, #9, ...

........................................................................
.............................. CYCLE   22 ..............................
........................................................................

 iter      E             dE          RMSdq      gap      omega  full diag
   1    -13.7126983 -0.137127E+02  0.164E-02    4.08       0.0  T
   2    -13.7126983 -0.761526E-07  0.983E-03    4.08       3.2  T
   3    -13.7126983  0.131586E-07  0.210E-03    4.08      15.0  T
   4    -13.7126983 -0.226502E-07  0.513E-04    4.08      61.6  T
   5    -13.7126983 -0.872664E-09  0.255E-04    4.08     123.9  T
     SCC iter.                  ...        0 min,  0.001 sec
     gradient                   ...        0 min,  0.002 sec
 * total energy  :   -13.5413210 Eh     change       -0.5502050E-05 Eh
   gradient norm :     0.0006459 Eh/α   predicted    -0.3540949E-05 ( -35.64%)
   displ. norm   :     0.0181225 α      lambda       -0.3479730E-05
   maximum displ.:     0.0116778 α      in ANC's #2, #4, #1, ...

........................................................................
.............................. CYCLE   23 ..............................
........................................................................

 iter      E             dE          RMSdq      gap      omega  full diag
   1    -13.7125935 -0.137126E+02  0.154E-02    4.08       0.0  T
   2    -13.7125936 -0.289420E-07  0.914E-03    4.08       3.5  T
   3    -13.7125936  0.338357E-08  0.126E-03    4.08      25.0  T
   4    -13.7125936 -0.801793E-08  0.411E-04    4.08      76.8  T
   5    -13.7125936 -0.450793E-09  0.176E-04    4.08     179.2  T
     SCC iter.                  ...        0 min,  0.001 sec
     gradient                   ...        0 min,  0.001 sec
 * total energy  :   -13.5413240 Eh     change       -0.2917383E-05 Eh
   gradient norm :     0.0008504 Eh/α   predicted    -0.1739981E-05 ( -40.36%)
   displ. norm   :     0.0478016 α      lambda       -0.5090589E-05
   maximum displ.:     0.0359697 α      in ANC's #1, #2, #4, ...

........................................................................
.............................. CYCLE   24 ..............................
........................................................................

 iter      E             dE          RMSdq      gap      omega  full diag
   1    -13.7125804 -0.137126E+02  0.283E-02    4.08       0.0  T
   2    -13.7125805 -0.547619E-07  0.167E-02    4.08       1.9  T
   3    -13.7125805 -0.130476E-07  0.135E-03    4.08      23.4  T
   4    -13.7125805 -0.497252E-08  0.731E-04    4.08      43.2  T
   5    -13.7125805 -0.910008E-09  0.276E-04    4.08     114.5  T
     SCC iter.                  ...        0 min,  0.001 sec
     gradient                   ...        0 min,  0.001 sec
 * total energy  :   -13.5413300 Eh     change       -0.6062335E-05 Eh
   gradient norm :     0.0012860 Eh/α   predicted    -0.2548539E-05 ( -57.96%)
   displ. norm   :     0.1101442 α      lambda       -0.9731717E-05
   maximum displ.:     0.0816490 α      in ANC's #1, #2, #4, ...

........................................................................
.............................. CYCLE   25 ..............................
........................................................................

 iter      E             dE          RMSdq      gap      omega  full diag
   1    -13.7124687 -0.137125E+02  0.654E-02    4.08       0.0  T
   2    -13.7124689 -0.212315E-06  0.386E-02    4.08       1.0  T
   3    -13.7124690 -0.875504E-07  0.250E-03    4.08      12.7  T
   4    -13.7124690 -0.380664E-08  0.102E-03    4.08      30.9  T
   5    -13.7124690 -0.963841E-09  0.366E-04    4.08      86.5  T
   6    -13.7124690 -0.260426E-09  0.199E-04    4.08     158.9  T
     SCC iter.                  ...        0 min,  0.001 sec
     gradient                   ...        0 min,  0.001 sec
 * total energy  :   -13.5413392 Eh     change       -0.9161463E-05 Eh
   gradient norm :     0.0015114 Eh/α   predicted    -0.4891045E-05 ( -46.61%)
   displ. norm   :     0.0442256 α      lambda       -0.2988507E-05
   maximum displ.:     0.0324734 α      in ANC's #1, #2, #4, ...

........................................................................
.............................. CYCLE   26 ..............................
........................................................................

 iter      E             dE          RMSdq      gap      omega  full diag
   1    -13.7127406 -0.137127E+02  0.251E-02    4.08       0.0  T
   2    -13.7127407 -0.725085E-07  0.148E-02    4.08       2.1  T
   3    -13.7127407 -0.101664E-07  0.126E-03    4.08      25.1  T
   4    -13.7127407 -0.299217E-08  0.607E-04    4.08      52.1  T
   5    -13.7127407 -0.281270E-09  0.279E-04    4.08     113.2  T
     SCC iter.                  ...        0 min,  0.001 sec
     gradient                   ...        0 min,  0.001 sec
 * total energy  :   -13.5413418 Eh     change       -0.2657828E-05 Eh
   gradient norm :     0.0003572 Eh/α   predicted    -0.1495587E-05 ( -43.73%)
   displ. norm   :     0.0237922 α      lambda       -0.5681183E-06
   maximum displ.:     0.0172483 α      in ANC's #2, #1, #4, ...

........................................................................
.............................. CYCLE   27 ..............................
........................................................................

 iter      E             dE          RMSdq      gap      omega  full diag
   1    -13.7127596 -0.137128E+02  0.127E-02    4.08       0.0  T
   2    -13.7127596 -0.101585E-07  0.753E-03    4.08       4.2  T
   3    -13.7127596 -0.928418E-09  0.701E-04    4.08      45.1  T
   4    -13.7127596 -0.220056E-08  0.311E-04    4.08     101.5  T
     SCC iter.                  ...        0 min,  0.001 sec
     gradient                   ...        0 min,  0.001 sec
 * total energy  :   -13.5413424 Eh     change       -0.5452628E-06 Eh
   gradient norm :     0.0001236 Eh/α   predicted    -0.2847005E-06 ( -47.79%)
   displ. norm   :     0.0070010 α      lambda       -0.2264954E-06
   maximum displ.:     0.0068961 α      in ANC's #2, #1, #4, ...

........................................................................
.............................. CYCLE   28 ..............................
........................................................................

 iter      E             dE          RMSdq      gap      omega  full diag
   1    -13.7128161 -0.137128E+02  0.263E-03    4.08       0.0  T
   2    -13.7128161 -0.135672E-08  0.158E-03    4.08      20.1  T
   3    -13.7128161 -0.483578E-10  0.178E-04    4.08     177.8  T
   4    -13.7128161 -0.352465E-10  0.418E-05    4.08     756.5  T
     SCC iter.                  ...        0 min,  0.001 sec
     gradient                   ...        0 min,  0.001 sec
 * total energy  :   -13.5413427 Eh     change       -0.3003176E-06 Eh
   gradient norm :     0.0001875 Eh/α   predicted    -0.1135195E-06 ( -62.20%)
   displ. norm   :     0.0116685 α      lambda       -0.3303510E-06
   maximum displ.:     0.0081146 α      in ANC's #1, #2, #4, ...

........................................................................
.............................. CYCLE   29 ..............................
........................................................................

 iter      E             dE          RMSdq      gap      omega  full diag
   1    -13.7128338 -0.137128E+02  0.666E-03    4.08       0.0  T
   2    -13.7128338 -0.210116E-08  0.393E-03    4.08       8.0  T
   3    -13.7128338 -0.715557E-09  0.276E-04    4.08     114.6  T
   4    -13.7128338 -0.142228E-09  0.152E-04    4.08     208.5  T
     SCC iter.                  ...        0 min,  0.002 sec
     gradient                   ...        0 min,  0.001 sec
 * total energy  :   -13.5413431 Eh     change       -0.4405234E-06 Eh
   gradient norm :     0.0002459 Eh/α   predicted    -0.1661165E-06 ( -62.29%)
   displ. norm   :     0.0169160 α      lambda       -0.3996490E-06
   maximum displ.:     0.0121666 α      in ANC's #1, #2, #4, ...

........................................................................
.............................. CYCLE   30 ..............................
........................................................................

 iter      E             dE          RMSdq      gap      omega  full diag
   1    -13.7128133 -0.137128E+02  0.966E-03    4.08       0.0  T
   2    -13.7128133 -0.533880E-08  0.571E-03    4.08       5.5  T
   3    -13.7128133 -0.138850E-08  0.436E-04    4.08      72.5  T
   4    -13.7128133 -0.511964E-09  0.235E-04    4.08     134.3  T
     SCC iter.                  ...        0 min,  0.001 sec
     gradient                   ...        0 min,  0.001 sec
 * total energy  :   -13.5413436 Eh     change       -0.5086070E-06 Eh
   gradient norm :     0.0001786 Eh/α   predicted    -0.2016860E-06 ( -60.35%)
   displ. norm   :     0.0125076 α      lambda       -0.2571842E-06
   maximum displ.:     0.0089632 α      in ANC's #2, #1, #4, ...

........................................................................
.............................. CYCLE   31 ..............................
........................................................................

 iter      E             dE          RMSdq      gap      omega  full diag
   1    -13.7127869 -0.137128E+02  0.640E-03    4.08       0.0  T
   2    -13.7127869 -0.276261E-08  0.379E-03    4.08       8.3  T
   3    -13.7127869 -0.592285E-09  0.290E-04    4.08     109.1  T
   4    -13.7127869 -0.210576E-09  0.154E-04    4.08     204.7  T
     SCC iter.                  ...        0 min,  0.001 sec
     gradient                   ...        0 min,  0.001 sec
 * total energy  :   -13.5413440 Eh     change       -0.3386514E-06 Eh
   gradient norm :     0.0000737 Eh/α   predicted    -0.1281028E-06 ( -62.17%)
   displ. norm   :     0.0069921 α      lambda       -0.1597027E-06
   maximum displ.:     0.0065603 α      in ANC's #2, #1, #4, ...

........................................................................
.............................. CYCLE   32 ..............................
........................................................................

 iter      E             dE          RMSdq      gap      omega  full diag
   1    -13.7127703 -0.137128E+02  0.269E-03    4.08       0.0  T
   2    -13.7127703 -0.746400E-09  0.161E-03    4.08      19.7  T
   3    -13.7127703  0.122817E-10  0.170E-04    4.08     186.1  T
   4    -13.7127703 -0.123814E-09  0.649E-05    4.08     487.5  T
     SCC iter.                  ...        0 min,  0.001 sec
     gradient                   ...        0 min,  0.001 sec
 * total energy  :   -13.5413442 Eh     change       -0.2256351E-06 Eh
   gradient norm :     0.0000602 Eh/α   predicted    -0.7895906E-07 ( -65.01%)
   displ. norm   :     0.0055862 α      lambda       -0.1391327E-06
   maximum displ.:     0.0054921 α      in ANC's #2, #1, #4, ...

........................................................................
.............................. CYCLE   33 ..............................
........................................................................

 iter      E             dE          RMSdq      gap      omega  full diag
   1    -13.7127636 -0.137128E+02  0.200E-03    4.08       0.0  T
   2    -13.7127636 -0.240295E-09  0.120E-03    4.08      26.3  T
   3    -13.7127636 -0.229949E-10  0.787E-05    4.08     401.7  T
   4    -13.7127636 -0.210019E-10  0.372E-05    4.08     850.1  T
     SCC iter.                  ...        0 min,  0.001 sec
     gradient                   ...        0 min,  0.001 sec
 * total energy  :   -13.5413444 Eh     change       -0.1998798E-06 Eh
   gradient norm :     0.0000921 Eh/α   predicted    -0.6844944E-07 ( -65.75%)
   displ. norm   :     0.0066354 α      lambda       -0.1506506E-06
   maximum displ.:     0.0058900 α      in ANC's #2, #1, #4, ...

........................................................................
.............................. CYCLE   34 ..............................
........................................................................

 iter      E             dE          RMSdq      gap      omega  full diag
   1    -13.7127602 -0.137128E+02  0.285E-03    4.08       0.0  T
   2    -13.7127602 -0.319227E-09  0.170E-03    4.08      18.6  T
   3    -13.7127602 -0.100940E-09  0.106E-04    4.08     298.3  T
   4    -13.7127602 -0.208669E-10  0.585E-05    4.08     540.5  T
     SCC iter.                  ...        0 min,  0.001 sec
     gradient                   ...        0 min,  0.001 sec
 * total energy  :   -13.5413446 Eh     change       -0.2194138E-06 Eh
   gradient norm :     0.0001049 Eh/α   predicted    -0.7559953E-07 ( -65.54%)
   displ. norm   :     0.0078097 α      lambda       -0.1695733E-06
   maximum displ.:     0.0069275 α      in ANC's #2, #1, #4, ...

........................................................................
.............................. CYCLE   35 ..............................
........................................................................

 iter      E             dE          RMSdq      gap      omega  full diag
   1    -13.7127666 -0.137128E+02  0.338E-03    4.08       0.0  T
   2    -13.7127666 -0.425253E-09  0.201E-03    4.08      15.7  T
   3    -13.7127666 -0.147891E-09  0.126E-04    4.08     251.2  T
   4    -13.7127666 -0.265672E-10  0.695E-05    4.08     454.8  T
     SCC iter.                  ...        0 min,  0.001 sec
     gradient                   ...        0 min,  0.001 sec
 * total energy  :   -13.5413449 Eh     change       -0.2463608E-06 Eh
   gradient norm :     0.0000858 Eh/α   predicted    -0.8558255E-07 ( -65.26%)
   displ. norm   :     0.0084566 α      lambda       -0.1774801E-06
   maximum displ.:     0.0077653 α      in ANC's #2, #1, #4, ...

........................................................................
.............................. CYCLE   36 ..............................
........................................................................

 iter      E             dE          RMSdq      gap      omega  full diag
   1    -13.7127727 -0.137128E+02  0.343E-03    4.08       0.0  T
   2    -13.7127727 -0.393971E-09  0.205E-03    4.08      15.4  T
   3    -13.7127727 -0.121435E-09  0.128E-04    4.08     248.0  T
   4    -13.7127727 -0.399556E-10  0.687E-05    4.08     460.4  T
     SCC iter.                  ...        0 min,  0.006 sec
     gradient                   ...        0 min,  0.001 sec
 * total energy  :   -13.5413451 Eh     change       -0.2565417E-06 Eh
   gradient norm :     0.0000519 Eh/α   predicted    -0.8907052E-07 ( -65.28%)
   displ. norm   :     0.0079706 α      lambda       -0.1696042E-06
   maximum displ.:     0.0077486 α      in ANC's #2, #1, #4, ...

........................................................................
.............................. CYCLE   37 ..............................
........................................................................

 iter      E             dE          RMSdq      gap      omega  full diag
   1    -13.7127824 -0.137128E+02  0.290E-03    4.08       0.0  T
   2    -13.7127824 -0.290344E-09  0.174E-03    4.08      18.1  T
   3    -13.7127824 -0.432028E-10  0.113E-04    4.08     280.9  T
   4    -13.7127824 -0.543174E-10  0.539E-05    4.08     587.2  T
     SCC iter.                  ...        0 min,  0.001 sec
     gradient                   ...        0 min,  0.001 sec
 * total energy  :   -13.5413454 Eh     change       -0.2415119E-06 Eh
   gradient norm :     0.0000367 Eh/α   predicted    -0.8311570E-07 ( -65.59%)
   displ. norm   :     0.0073278 α      lambda       -0.1485646E-06
   maximum displ.:     0.0072914 α      in ANC's #2, #1, #16, ...

........................................................................
.............................. CYCLE   38 ..............................
........................................................................

 iter      E             dE          RMSdq      gap      omega  full diag
   1    -13.7127875 -0.137128E+02  0.250E-03    4.08       0.0  T
   2    -13.7127875 -0.167304E-09  0.151E-03    4.08      20.9  T
   3    -13.7127875 -0.525802E-12  0.101E-04    4.08     314.2  T
   4    -13.7127875 -0.601510E-10  0.393E-05    4.08     804.9  T
     SCC iter.                  ...        0 min,  0.001 sec
     gradient                   ...        0 min,  0.001 sec
 * total energy  :   -13.5413456 Eh     change       -0.2202651E-06 Eh
   gradient norm :     0.0000499 Eh/α   predicted    -0.7511259E-07 ( -65.90%)
   displ. norm   :     0.0065807 α      lambda       -0.1320045E-06
   maximum displ.:     0.0065326 α      in ANC's #2, #1, #4, ...

........................................................................
.............................. CYCLE   39 ..............................
........................................................................

 iter      E             dE          RMSdq      gap      omega  full diag
   1    -13.7127902 -0.137128E+02  0.224E-03    4.08       0.0  T
   2    -13.7127902 -0.152589E-09  0.135E-03    4.08      23.4  T
   3    -13.7127902  0.696332E-12  0.917E-05    4.08     344.8  T
   4    -13.7127902 -0.502514E-10  0.370E-05    4.08     855.4  T
     SCC iter.                  ...        0 min,  0.001 sec
     gradient                   ...        0 min,  0.005 sec
 * total energy  :   -13.5413458 Eh     change       -0.1948090E-06 Eh
   gradient norm :     0.0000611 Eh/α   predicted    -0.6617935E-07 ( -66.03%)
   displ. norm   :     0.0060668 α      lambda       -0.1162672E-06
   maximum displ.:     0.0059284 α      in ANC's #2, #1, #4, ...

........................................................................
.............................. CYCLE   40 ..............................
........................................................................

 iter      E             dE          RMSdq      gap      omega  full diag
   1    -13.7127891 -0.137128E+02  0.215E-03    4.08       0.0  T
   2    -13.7127891 -0.171255E-09  0.129E-03    4.08      24.4  T
   3    -13.7127891 -0.847677E-11  0.914E-05    4.08     346.0  T
   4    -13.7127891 -0.431584E-10  0.399E-05    4.08     792.7  T
     SCC iter.                  ...        0 min,  0.002 sec
     gradient                   ...        0 min,  0.001 sec
 * total energy  :   -13.5413460 Eh     change       -0.1740604E-06 Eh
   gradient norm :     0.0000572 Eh/α   predicted    -0.5917361E-07 ( -66.00%)
   displ. norm   :     0.0057428 α      lambda       -0.1060310E-06
   maximum displ.:     0.0055107 α      in ANC's #2, #1, #4, ...

........................................................................
.............................. CYCLE   41 ..............................
........................................................................

 iter      E             dE          RMSdq      gap      omega  full diag
   1    -13.7127854 -0.137128E+02  0.210E-03    4.08       0.0  T
   2    -13.7127854 -0.193097E-09  0.126E-03    4.08      25.1  T
   3    -13.7127854 -0.142784E-10  0.910E-05    4.08     347.7  T
   4    -13.7127854 -0.388880E-10  0.418E-05    4.08     756.0  T
     SCC iter.                  ...        0 min,  0.001 sec
     gradient                   ...        0 min,  0.001 sec
 * total energy  :   -13.5413461 Eh     change       -0.1568769E-06 Eh
   gradient norm :     0.0000444 Eh/α   predicted    -0.5348177E-07 ( -65.91%)
   displ. norm   :     0.0053819 α      lambda       -0.9382084E-07
   maximum displ.:     0.0051736 α      in ANC's #2, #1, #4, ...

........................................................................
.............................. CYCLE   42 ..............................
........................................................................

 iter      E             dE          RMSdq      gap      omega  full diag
   1    -13.7127814 -0.137128E+02  0.197E-03    4.08       0.0  T
   2    -13.7127814 -0.189040E-09  0.118E-03    4.08      26.8  T
   3    -13.7127814 -0.112674E-10  0.882E-05    4.08     358.7  T
   4    -13.7127814 -0.361631E-10  0.397E-05    4.08     797.4  T
     SCC iter.                  ...        0 min,  0.001 sec
     gradient                   ...        0 min,  0.001 sec
 * total energy  :   -13.5413462 Eh     change       -0.1411214E-06 Eh
   gradient norm :     0.0000302 Eh/α   predicted    -0.4807084E-07 ( -65.94%)
   displ. norm   :     0.0050977 α      lambda       -0.8935352E-07
   maximum displ.:     0.0049308 α      in ANC's #2, #1, #4, ...
 * RMSD in coord.:     0.1000173 α      energy gain  -0.4861299E-04 Eh

generating ANC from exact Hessian ...
Using Lindh-Hessian (1995)
 Shifting diagonal of input Hessian by   1.035101136308536E-003
 Lowest  eigenvalues of input Hessian
    0.000000    0.000000    0.000000    0.000000    0.000000    0.000000
    0.010000    0.011393    0.020145    0.049670    0.061343    0.061448
    0.063792    0.086692    0.118964    0.127803    0.133652    0.133808
 Highest eigenvalues
    1.106913    1.112925    1.139094    1.175896    1.395511    2.146930
 

........................................................................
.............................. CYCLE   43 ..............................
........................................................................

 iter      E             dE          RMSdq      gap      omega  full diag
   1    -13.7127767 -0.137128E+02  0.183E-03    4.08       0.0  T
   2    -13.7127767 -0.161471E-09  0.110E-03    4.08      28.8  T
   3    -13.7127767 -0.837375E-11  0.806E-05    4.08     392.5  T
   4    -13.7127767 -0.307310E-10  0.360E-05    4.08     878.2  T
     SCC iter.                  ...        0 min,  0.001 sec
     gradient                   ...        0 min,  0.001 sec
 * total energy  :   -13.5413464 Eh     change       -0.1286458E-06 Eh
   gradient norm :     0.0000264 Eh/α   predicted     0.0000000E+00 (-100.00%)
   displ. norm   :     0.0033799 α      lambda       -0.5895640E-07
   maximum displ.:     0.0033788 α      in ANC's #2, #1, #4, ...

........................................................................
.............................. CYCLE   44 ..............................
........................................................................

 iter      E             dE          RMSdq      gap      omega  full diag
   1    -13.7127785 -0.137128E+02  0.115E-03    4.08       0.0  T
   2    -13.7127785 -0.293703E-10  0.694E-04    4.08      45.6  T
   3    -13.7127785 -0.159872E-13  0.420E-05    4.08     752.8  T
     SCC iter.                  ...        0 min,  0.000 sec
     gradient                   ...        0 min,  0.001 sec
 * total energy  :   -13.5413465 Eh     change       -0.8566804E-07 Eh
   gradient norm :     0.0000263 Eh/α   predicted    -0.2894604E-07 ( -66.21%)
   displ. norm   :     0.0037913 α      lambda       -0.5996157E-07
   maximum displ.:     0.0037881 α      in ANC's #2, #9, #12, ...

   *** GEOMETRY OPTIMIZATION CONVERGED AFTER 44 ITERATIONS ***

------------------------------------------------------------------------
 total energy gain   :        -0.0026036 Eh       -1.6338 kcal/mol
 total RMSD          :         0.7385651 a0        0.3908 Å
 total power (kW/mol):        -0.1553566 (step)  -54.6859 (real)
------------------------------------------------------------------------

 ANCopt (total)                0 d,  0 h,  0 min,  0.125 sec
 optimizer setup                ...        0 min,  0.000 sec (  0.091%)
 model hessian                  ...        0 min,  0.004 sec (  3.361%)
 ANC generation                 ...        0 min,  0.001 sec (  0.476%)
 coordinate transformation      ...        0 min,  0.000 sec (  0.346%)
 single point calculation       ...        0 min,  0.110 sec ( 87.601%)
 optimization log               ...        0 min,  0.003 sec (  2.289%)
 hessian update                 ...        0 min,  0.003 sec (  2.065%)
 rational function              ...        0 min,  0.002 sec (  1.962%)

================
 final structure:
================
10
 xtb: 6.7.1 (edcfbbe)
C           -1.26166358453542        0.68665097067903       -0.07355004468767
C            0.00168811919627       -0.13551792502393       -0.05657376811496
C            1.26761996671324        0.66806060040638        0.09855085369595
O           -0.00022210613660       -1.33933318948170       -0.15874307821117
H           -2.10848634165608        0.07473268707529       -0.37370019680282
H           -1.15513781192284        1.53353896807112       -0.74669366244766
H           -1.44306971334066        1.07244471051522        0.92850918501463
H            2.11309065473248        0.01140638416122        0.28726371684001
H            1.16470074984471        1.38672932396070        0.90766343666622
H            1.44838598520492        1.22013584023664       -0.82252165485251
 
 Bond Distances (Angstroems)
 ---------------------------
C1-C2=1.5074         C1-H5=1.0870         C1-H6=1.0871         C1-H7=1.0890         C2-C1=1.5074         C2-C3=1.5074         
C2-O4=1.2081         C3-C2=1.5074         C3-H8=1.0870         C3-H9=1.0871         C3-H10=1.0890        O4-C2=1.2081         
H5-C1=1.0870         H6-C1=1.0871         H7-C1=1.0890         H8-C3=1.0870         H9-C3=1.0871         H10-C3=1.0890        
 C  H  Rav=1.0877 sigma=0.0009  Rmin=1.0870  Rmax=1.0890     6
 C  C  Rav=1.5074 sigma=0.0000  Rmin=1.5074  Rmax=1.5074     2
 O  C  Rav=1.2081 sigma=0.0000  Rmin=1.2081  Rmax=1.2081     1
 
 selected bond angles (degree)
 --------------------
H5-C1-C2=110.42                H6-C1-C2=110.47                H6-C1-H5=110.12                H7-C1-C2=108.81                
H7-C1-H5=108.89                H7-C1-H6=108.07                C3-C2-C1=114.47                O4-C2-C1=122.76                
O4-C2-C3=122.76                H8-C3-C2=110.43                H9-C3-C2=110.46                H9-C3-H8=110.11                
H10-C3-C2=108.82               H10-C3-H8=108.90               H10-C3-H9=108.07               
 
 selected dihedral angles (degree)
 ---------------------------------
C3-C2-C1-H5=169.31            C3-C2-C1-H6= 47.25            C3-C2-C1-H7=288.77            O4-C2-C1-H5=349.30            
O4-C2-C1-H6=227.25            O4-C2-C1-H7=108.76            H8-C3-C2-C1=169.52            H8-C3-C2-O4=349.53            
H9-C3-C2-C1= 47.48            H9-C3-C2-O4=227.49            H10-C3-C2-C1=289.01           H10-C3-C2-O4=109.01           
           -------------------------------------------------
          |                Final Singlepoint                |
           -------------------------------------------------

          ...................................................
          :                      SETUP                      :
          :.................................................:
          :  # basis functions                  22          :
          :  # atomic orbitals                  22          :
          :  # shells                           14          :
          :  # electrons                        24          :
          :  max. iterations                    40          :
          :  Hamiltonian                  GFN2-xTB          :
          :  restarted?                      false          :
          :  GBSA solvation                   true          :
          :  PC potential                    false          :
          :  electronic temp.          300.0000000     K    :
          :  accuracy                    1.0000000          :
          :  -> integral cutoff          0.2500000E+02      :
          :  -> integral neglect         0.1000000E-07      :
          :  -> SCF convergence          0.1000000E-05 Eh   :
          :  -> wf. convergence          0.1000000E-03 e    :
          :  Broyden damping             0.4000000          :
          :  net charge                          0          :
          :  unpaired electrons                  0          :
          ...................................................

 iter      E             dE          RMSdq      gap      omega  full diag
   1    -13.7127785 -0.137128E+02  0.165E-05    4.08       0.0  T
   2    -13.7127785 -0.271783E-12  0.876E-06    4.08    3611.0  T
   3    -13.7127785 -0.355271E-13  0.450E-06    4.08    7034.1  T

   *** convergence criteria satisfied after 3 iterations ***

         #    Occupation            Energy/Eh            Energy/eV
      -------------------------------------------------------------
         1        2.0000           -0.7132515             -19.4086
       ...           ...                  ...                  ...
         6        2.0000           -0.5380046             -14.6399
         7        2.0000           -0.5223176             -14.2130
         8        2.0000           -0.4820788             -13.1180
         9        2.0000           -0.4770469             -12.9811
        10        2.0000           -0.4756519             -12.9431
        11        2.0000           -0.4695986             -12.7784
        12        2.0000           -0.4009384             -10.9101 (HOMO)
        13                         -0.2508655              -6.8264 (LUMO)
        14                          0.0868481               2.3633
        15                          0.1457480               3.9660
        16                          0.1669446               4.5428
        17                          0.1798178               4.8931
       ...                                ...                  ...
        22                          0.6205679              16.8865
      -------------------------------------------------------------
                  HL-Gap            0.1500729 Eh            4.0837 eV
             Fermi-level           -0.3259020 Eh           -8.8682 eV

 SCC (total)                   0 d,  0 h,  0 min,  0.005 sec
 SCC setup                      ...        0 min,  0.002 sec ( 51.108%)
 Dispersion                     ...        0 min,  0.000 sec (  0.744%)
 classical contributions        ...        0 min,  0.000 sec (  0.304%)
 integral evaluation            ...        0 min,  0.000 sec (  7.425%)
 iterations                     ...        0 min,  0.001 sec ( 21.192%)
 molecular gradient             ...        0 min,  0.001 sec ( 16.322%)
 printout                       ...        0 min,  0.000 sec (  2.084%)

         :::::::::::::::::::::::::::::::::::::::::::::::::::::
         ::                     SUMMARY                     ::
         :::::::::::::::::::::::::::::::::::::::::::::::::::::
         :: total energy             -13.541346462880 Eh    ::
         :: total w/o Gsasa/hb       -13.536667125669 Eh    ::
         :: gradient norm              0.000026469501 Eh/a0 ::
         :: HOMO-LUMO gap              4.083690903483 eV    ::
         ::.................................................::
         :: SCC energy               -13.712777024162 Eh    ::
         :: -> isotropic ES            0.031222394537 Eh    ::
         :: -> anisotropic ES          0.001645949846 Eh    ::
         :: -> anisotropic XC          0.005735975268 Eh    ::
         :: -> dispersion             -0.003900099437 Eh    ::
         :: -> Gsolv                  -0.007492818470 Eh    ::
         ::    -> Gelec               -0.002813481259 Eh    ::
         ::    -> Gsasa               -0.006887480350 Eh    ::
         ::    -> Ghb                  0.000000000000 Eh    ::
         ::    -> Gshift               0.002208143139 Eh    ::
         :: repulsion energy           0.171430561282 Eh    ::
         :: add. restraining           0.000000000000 Eh    ::
         :: total charge               0.000000000000 e     ::
         :::::::::::::::::::::::::::::::::::::::::::::::::::::

           -------------------------------------------------
          |                Property Printout                |
           -------------------------------------------------

    * Orbital Energies and Occupations

         #    Occupation            Energy/Eh            Energy/eV
      -------------------------------------------------------------
         1        2.0000           -0.7132515             -19.4086
         2        2.0000           -0.6415285             -17.4569
         3        2.0000           -0.6193121             -16.8523
         4        2.0000           -0.5722073             -15.5706
         5        2.0000           -0.5469597             -14.8835
         6        2.0000           -0.5380046             -14.6399
         7        2.0000           -0.5223176             -14.2130
         8        2.0000           -0.4820788             -13.1180
         9        2.0000           -0.4770469             -12.9811
        10        2.0000           -0.4756519             -12.9431
        11        2.0000           -0.4695986             -12.7784
        12        2.0000           -0.4009384             -10.9101 (HOMO)
        13                         -0.2508655              -6.8264 (LUMO)
        14                          0.0868481               2.3633
        15                          0.1457480               3.9660
        16                          0.1669446               4.5428
        17                          0.1798178               4.8931
        18                          0.1926570               5.2425
        19                          0.2065763               5.6212
        20                          0.2152699               5.8578
        21                          0.2724692               7.4143
        22                          0.6205679              16.8865
      -------------------------------------------------------------
                  HL-Gap            0.1500729 Eh            4.0837 eV
             Fermi-level           -0.3259020 Eh           -8.8682 eV

     #   Z          covCN         q      C6AA      α(0)
     1   6 C        3.754    -0.142    23.301     6.883
     2   6 C        2.808     0.248    22.841     7.830
     3   6 C        3.754    -0.142    23.301     6.883
     4   8 O        0.857    -0.385    21.386     6.200
     5   1 H        0.925     0.065     2.140     2.288
     6   1 H        0.925     0.070     2.081     2.256
     7   1 H        0.925     0.075     2.029     2.228
     8   1 H        0.925     0.065     2.140     2.288
     9   1 H        0.925     0.071     2.080     2.255
    10   1 H        0.925     0.075     2.030     2.228

 Mol. C6AA /au·bohr⁶  :        764.140910
 Mol. C8AA /au·bohr⁸  :      16430.561637
 Mol. α(0) /au        :         41.338931


Wiberg/Mayer (AO) data.
largest (>0.10) Wiberg bond orders for each atom

 ---------------------------------------------------------------------------
     #   Z sym  total        # sym  WBO       # sym  WBO       # sym  WBO
 ---------------------------------------------------------------------------
     1   6 C    3.994 --     2 C    1.007     5 H    0.983     6 H    0.967
                             7 H    0.955
     2   6 C    3.912 --     4 O    1.851     1 C    1.007     3 C    1.007
     3   6 C    3.994 --     2 C    1.007     8 H    0.983     9 H    0.967
                            10 H    0.955
     4   8 O    2.054 --     2 C    1.851
     5   1 H    0.996 --     1 C    0.983
     6   1 H    0.995 --     1 C    0.967
     7   1 H    0.994 --     1 C    0.955
     8   1 H    0.996 --     3 C    0.983
     9   1 H    0.995 --     3 C    0.967
    10   1 H    0.994 --     3 C    0.955
 ---------------------------------------------------------------------------

Topologies differ in total number of bonds
Writing topology from bond orders to xtbtopo.mol

molecular dipole:
                 x           y           z       tot (Debye)
 q only:        0.002       1.272       0.108
   full:        0.002       1.454       0.124       3.709
molecular quadrupole (traceless):
                xx          xy          yy          xz          yz          zz
 q only:        2.425      -0.003      -2.641       0.026      -0.408       0.216
  q+dip:        2.560       0.006      -3.391      -0.080      -0.548       0.831
   full:        2.307       0.012      -3.813      -0.152      -0.642       1.505

           -------------------------------------------------
          |                Geometry Summary                 |
           -------------------------------------------------

      molecular mass/u    :       58.0792571
   center of mass at/Å    :        0.0018578      -0.0248635      -0.0471262
  moments of inertia/u·Å² :        0.5031502E+02   0.5767381E+02   0.1017495E+03
rotational constants/cm⁻¹ :        0.3350417E+00   0.2922927E+00   0.1656779E+00

 * 7 selected distances

     #   Z          #   Z                                           value/Å
     2   6 C        4   8 O                                       1.2081447 (max)
     1   6 C        5   1 H                                       1.0870341
     1   6 C        6   1 H                                       1.0870555
     1   6 C        7   1 H                                       1.0889756
     3   6 C        8   1 H                                       1.0870272 (min)
     3   6 C        9   1 H                                       1.0870789
     3   6 C       10   1 H                                       1.0889620

 * 2 distinct bonds (by element types)

   Z      Z             #   av. dist./Å        max./Å        min./Å
   1 H    6 C           6     1.0876889     1.0889756     1.0870272
   6 C    8 O           1     1.2081447     1.2081447     1.2081447


optimized geometry written to: xtbopt.xyz


           -------------------------------------------------
          | TOTAL ENERGY              -13.541346462880 Eh   |
          | GRADIENT NORM               0.000026469501 Eh/α |
          | HOMO-LUMO GAP               4.083690903483 eV   |
           -------------------------------------------------

------------------------------------------------------------------------
 * finished run on 2024/08/07 at 20:42:15.998     
------------------------------------------------------------------------
 total:
 * wall-time:     0 d,  0 h,  0 min,  0.157 sec
 *  cpu-time:     0 d,  0 h,  0 min,  1.154 sec
 * ratio c/w:     7.329 speedup
 SCF:
 * wall-time:     0 d,  0 h,  0 min,  0.009 sec
 *  cpu-time:     0 d,  0 h,  0 min,  0.063 sec
 * ratio c/w:     6.686 speedup
 ANC optimizer:
 * wall-time:     0 d,  0 h,  0 min,  0.131 sec
 *  cpu-time:     0 d,  0 h,  0 min,  0.991 sec
 * ratio c/w:     7.583 speedup

