10
 energy: -13.538742886163 gnorm: 0.029911698415 xtb: 6.7.1 (edcfbbe)
C           -1.28311749070000        0.68231221560000       -0.00073293280000
C           -0.00004888770000       -0.08003742870000        0.00329959340000
C            1.29081381030000        0.67088419930000       -0.00057483730000
O           -0.00742173660000       -1.28261520100000       -0.00080329910000
H           -1.94103671450000        0.30396626500000       -0.78215314400000
H           -1.11955252600000        1.74534085330000       -0.17742435100000
H           -1.79612454870000        0.56646854770000        0.95356985530000
H            2.06021314310000        0.08949391120000        0.50609152480000
H            1.19761074910000        1.62914883990000        0.51040129310000
H            1.62557011980000        0.85388616830000       -1.02146891530000
10
 energy: -13.539949404799 gnorm: 0.010569503825 xtb: 6.7.1 (edcfbbe)
C           -1.27164353939105        0.69601131178012       -0.01018046540069
C            0.00079522752745       -0.10345293667022        0.00383213683210
C            1.28414077564468        0.67667041255019        0.01319219639347
O           -0.00889271253631       -1.31515291216972        0.00181564879897
H           -1.93761702912270        0.30147231743304       -0.77630583695844
H           -1.09913955021385        1.75640811407682       -0.18862722395148
H           -1.77512568518978        0.57648358943603        0.94790469673932
H            2.06667338282523        0.08951677042890        0.49248031326816
H            1.17695162493131        1.63431190326872        0.52091895139922
H            1.59076342362501        0.86657980046613       -1.01482563002063
10
 energy: -13.540180132342 gnorm: 0.005045749131 xtb: 6.7.1 (edcfbbe)
C           -1.26846836102989        0.70011645807859       -0.01829361953866
C            0.00124904930279       -0.11293416407651        0.00968601554589
C            1.28328679263611        0.67735825743985        0.02298776864768
O           -0.01041202707891       -1.32406146708905        0.00618373530036
H           -1.94283338684238        0.29407664251919       -0.77130137577953
H           -1.08189030365731        1.75270259389724       -0.21128580473968
H           -1.76435115197643        0.59373852979000        0.94589001736260
H            2.08188653422936        0.08749299334943        0.47214681169573
H            1.16749742198992        1.62338513181630        0.54535367635959
H            1.56094135052674        0.88697339487496       -1.01116243775399
10
 energy: -13.540329804672 gnorm: 0.004592444262 xtb: 6.7.1 (edcfbbe)
C           -1.26623014642331        0.70131439658837       -0.02714889364612
C            0.00174011678157       -0.12014640807419        0.00797637348008
C            1.28254704740506        0.67692716855118        0.03111409532140
O           -0.01155874980934       -1.32931935685033        0.01113947987818
H           -1.95435966428244        0.28056028399641       -0.75968776002560
H           -1.06934630305415        1.74503344094421       -0.24635044481383
H           -1.74708121418026        0.62006842937514        0.94851055165399
H            2.09353463052061        0.08233766631973        0.44948418977180
H            1.16178145408146        1.60597504569855        0.57964119772850
H            1.53587874706081        0.91609770405093       -1.00447400224841
10
 energy: -13.540445091295 gnorm: 0.005099548433 xtb: 6.7.1 (edcfbbe)
C           -1.26488982042218        0.70027795809913       -0.03318594018543
C            0.00200226754070       -0.12358861362060        0.01035260467271
C            1.28165139050247        0.67577612262669        0.03474191632397
O           -0.01220155799058       -1.33134102653239        0.01526834945757
H           -1.96162082520632        0.26911517413446       -0.75061959747447
H           -1.06411955073739        1.73805887467943       -0.27463681164961
H           -1.73547170817186        0.64182598578105        0.94974778102032
H            2.10005380272876        0.07704110024388        0.42969641687091
H            1.16240755330489        1.59043709215829        0.60742505846548
H            1.51909436655151        0.94124570303004       -0.99858499040144
10
 energy: -13.540576339224 gnorm: 0.004308708371 xtb: 6.7.1 (edcfbbe)
C           -1.26366055282532        0.69820510340917       -0.03871056114073
C            0.00212047298420       -0.12520160434898        0.00731932834439
C            1.28048091632674        0.67418454962872        0.03654680697205
O           -0.01265166168982       -1.33230397858725        0.01836834774322
H           -1.97154455884380        0.25533425006135       -0.73704365489036
H           -1.06354811414780        1.73043993087927       -0.30574618530328
H           -1.72022435473253        0.66593314586549        0.95237182060430
H            2.10225173221872        0.07045834980031        0.41175246404037
H            1.16461058461589        1.57367291275132        0.63481286685801
H            1.50907145419370        0.96812571114060       -0.98946644612797
10
 energy: -13.540717783022 gnorm: 0.003045057095 xtb: 6.7.1 (edcfbbe)
C           -1.26203741980535        0.69632233712660       -0.04492890782832
C            0.00214474541539       -0.12607838775143        0.00932522572627
C            1.27913732407909        0.67235812385028        0.03911011788165
O           -0.01308043468528       -1.33356690204242        0.02334167273912
H           -1.97955904935891        0.23705906331283       -0.72165608613533
H           -1.06520905489920        1.72200840969835       -0.34320093475093
H           -1.70565210597661        0.69554744951822        0.95212811111370
H            2.10739350824641        0.05918260439197        0.38567648011399
H            1.17048996148061        1.55286443270955        0.66897138564977
H            1.49327844360386        1.00315123978605       -0.97856227740993
10
 energy: -13.540846043070 gnorm: 0.003599951095 xtb: 6.7.1 (edcfbbe)
C           -1.26059396718805        0.69504220052463       -0.05230746076063
C            0.00199642825995       -0.12694457875134        0.00596721594112
C            1.27788883545806        0.67099814190527        0.04312422568355
O           -0.01353884176084       -1.33524716793372        0.02577251754318
H           -1.99270068085105        0.21444214165105       -0.69976340753879
H           -1.06776986034063        1.71159071124547       -0.38750008914878
H           -1.68497128588136        0.73063975528464        0.95319559108649
H            2.11101993152923        0.04703036646461        0.35904105384739
H            1.17647978327254        1.52949085292566        0.70565743943981
H            1.47909557560216        1.04180594728372       -0.96298229899333
10
 energy: -13.540944441701 gnorm: 0.010330282340 xtb: 6.7.1 (edcfbbe)
C           -1.25793183889205        0.69295507878238       -0.06712487812755
C            0.00176673900165       -0.12945921943618        0.00420915885247
C            1.27560724195095        0.66871427338983        0.05258959382288
O           -0.01394405075381       -1.33883846865068        0.02961783330031
H           -2.01618294690076        0.17010886891863       -0.65395131450298
H           -1.07286452500446        1.68692003985173       -0.47897604248352
H           -1.64511936535580        0.80463562162945        0.95147328933277
H            2.12103886107054        0.02441391613752        0.30009101949228
H            1.18979282854687        1.47884324468898        0.78215238840980
H            1.44474297443688        1.12055501528831       -0.92987626099645
10
 energy: -13.541035278243 gnorm: 0.004025556609 xtb: 6.7.1 (edcfbbe)
C           -1.25898413747965        0.69345109146274       -0.06564983849513
C            0.00164545841146       -0.12842163971088        0.00368573021420
C            1.27623593585260        0.66956775761215        0.05241158569357
O           -0.01354268577287       -1.33778477165029        0.02638586689642
H           -2.01486031804991        0.17438758538717       -0.65280167753435
H           -1.07623435203103        1.68524969584986       -0.47235170866041
H           -1.64712853012260        0.80061387680396        0.94837374735374
H            2.11892642334054        0.02878504352345        0.30402708384023
H            1.19172547308618        1.48040049326409        0.77374933612709
H            1.44912265086529        1.11259923805775       -0.92762533833536
10
 energy: -13.541096891297 gnorm: 0.003341222267 xtb: 6.7.1 (edcfbbe)
C           -1.25868315052047        0.69283851776953       -0.07070088793676
C            0.00151825628478       -0.12993800999094        0.00058466831338
C            1.27560693122924        0.66947896641885        0.05655554094120
O           -0.01321737774891       -1.33915974048810        0.02255705280884
H           -2.02548972340876        0.15882245696941       -0.62931012198415
H           -1.07848489490443        1.67093846183503       -0.50977322069277
H           -1.62813131082401        0.83256681772721        0.94668364429136
H            2.12060974501734        0.02462208349309        0.28337039771185
H            1.19547160589440        1.45825465247250        0.80146193553097
H            1.43770583708082        1.14042416439339       -0.91122422188391
10
 energy: -13.541144813624 gnorm: 0.004750900379 xtb: 6.7.1 (edcfbbe)
C           -1.25820834076139        0.69157245219947       -0.08003058494045
C            0.00139722823174       -0.13339353872064       -0.00143824165529
C            1.27453198692853        0.66901194663161        0.06509816796370
O           -0.01262482209487       -1.34180050053848        0.01746376847155
H           -2.04281675860753        0.13118598381237       -0.58646623710440
H           -1.08275633623540        1.64254516513816       -0.58050773118980
H           -1.59472354780191        0.89378952665928        0.94047469717004
H            2.12813410004630        0.01628145778384        0.24073318171547
H            1.20283427016584        1.41538967916469        0.85668446704122
H            1.41113813822869        1.19426619846968       -0.88180670037203
10
 energy: -13.541177574899 gnorm: 0.001527050680 xtb: 6.7.1 (edcfbbe)
C           -1.25875992612636        0.69182225892347       -0.07894096913767
C            0.00145539929399       -0.13372317013032       -0.00369889953041
C            1.27474134194704        0.66957318892609        0.06536814246236
O           -0.01238010881347       -1.34159923598964        0.01200160820573
H           -2.04442288450395        0.13335258515682       -0.58230554666623
H           -1.08355263260369        1.63939929336804       -0.58040824220697
H           -1.59170018317311        0.89479886888777        0.93995376854108
H            2.12639136651958        0.01996624592765        0.24544762318770
H            1.20065799744674        1.41540821493919        0.85332585853107
H            1.41447554811325        1.18985012059092       -0.88053855628665
10
 energy: -13.541196728475 gnorm: 0.004123587306 xtb: 6.7.1 (edcfbbe)
C           -1.25907024158161        0.69123375358598       -0.08371656947512
C            0.00137818992353       -0.13537902233748       -0.01059523133201
C            1.27400351077379        0.66980286785699        0.07138930325959
O           -0.01193898150623       -1.34266601374583       -0.00159539282845
H           -2.06139515967708        0.11650993930526       -0.54660200501334
H           -1.09110350163050        1.61798630926766       -0.62684377170798
H           -1.56298812135494        0.93564385962236        0.93670074882354
H            2.12739450362678        0.01797698657836        0.22771078656335
H            1.20345323175955        1.39000986567401        0.88228667745762
H            1.40717248776671        1.21772982479267       -0.85852975864718
10
 energy: -13.541218648370 gnorm: 0.002829991859 xtb: 6.7.1 (edcfbbe)
C           -1.25903431634208        0.69067877438604       -0.08603283687421
C            0.00130322292805       -0.13637407513846       -0.01107335110647
C            1.27304290555469        0.66967554480511        0.07575506153694
O           -0.01142237735798       -1.34364522600503       -0.00802615625803
H           -2.06707830639986        0.10746738815786       -0.52425873702658
H           -1.09782534736879        1.60200783007304       -0.65599290934368
H           -1.54780787370141        0.96334844324907        0.93016407681129
H            2.13079209826737        0.01545029305139        0.21192338245197
H            1.20733754238837        1.37265506017051        0.90261335910731
H            1.39759837013164        1.23758433785044       -0.84486710219853
10
 energy: -13.541241876910 gnorm: 0.001771096816 xtb: 6.7.1 (edcfbbe)
C           -1.25896567633335        0.69001801611709       -0.08684695552147
C            0.00126087103121       -0.13637335154597       -0.01519060251830
C            1.27197721031247        0.66936764164298        0.07856348565840
O           -0.01056949453413       -1.34418802672632       -0.01923927895049
H           -2.07358188885129        0.10106948349862       -0.50290908848608
H           -1.10579970383730        1.58885583871666       -0.67650200475770
H           -1.53250158388352        0.98487705887521        0.92599181497126
H            2.12962539631292        0.01435100670539        0.20793710722052
H            1.20812301026526        1.36265406927561        0.91280879788539
H            1.39733777761773        1.24821663404071       -0.83440848840153
10
 energy: -13.541056376029 gnorm: 0.013655912145 xtb: 6.7.1 (edcfbbe)
C           -1.25924011193845        0.68673535828263       -0.09393045876156
C            0.00085703212088       -0.13711320457678       -0.03496538025005
C            1.26783591276090        0.66789627702378        0.09392521973659
O           -0.00647960897834       -1.34625336009463       -0.07097173165092
H           -2.10911432750459        0.06131121902328       -0.39390325925628
H           -1.14013314303923        1.52311542818723       -0.79336919006522
H           -1.45382765466305        1.10004769755753        0.90796143215109
H            2.12729348766187        0.00605843384664        0.17523681768796
H            1.21270149526963        1.30409497987112        0.97823365767357
H            1.38701283641039        1.31295554147917       -0.77801232016516
10
 energy: -13.541275140574 gnorm: 0.003184952236 xtb: 6.7.1 (edcfbbe)
C           -1.25951956345390        0.68809859504411       -0.08913226297920
C            0.00094267443238       -0.13538669957558       -0.02854751606888
C            1.26971162390447        0.66821538513680        0.08700223484039
O           -0.00759731443462       -1.34408382795825       -0.05479232447671
H           -2.09303581534631        0.08015180968171       -0.43800539293760
H           -1.12810331558758        1.55141455008257       -0.73824318357384
H           -1.48735422000650        1.04815877742803        0.91495510331558
H            2.12638300841387        0.00969444103124        0.19760048345113
H            1.20815999024657        1.33516097684966        0.94359358139239
H            1.39731884993162        1.27742436287968       -0.80422593586324
10
 energy: -13.541285943877 gnorm: 0.001621632934 xtb: 6.7.1 (edcfbbe)
C           -1.25971077715922        0.68806772935113       -0.08914653860700
C            0.00094666717967       -0.13577297046668       -0.02916985962861
C            1.26995306278080        0.66783113502947        0.08803717204316
O           -0.00741268191635       -1.34403273165073       -0.05863786092653
H           -2.09342480387439        0.07984786060342       -0.43301243903833
H           -1.12969376009993        1.54833409163582       -0.74016129988870
H           -1.48468929794320        1.05238370566163        0.91280660243223
H            2.12712096385581        0.00962813857435        0.19887142741864
H            1.20661548840764        1.33503981078206        0.94400951823063
H            1.39720105686917        1.27752160107951       -0.80339193493547
10
 energy: -13.541297635562 gnorm: 0.002002902646 xtb: 6.7.1 (edcfbbe)
C           -1.26023865592001        0.68810932042549       -0.08840617568428
C            0.00093674226293       -0.13627077555654       -0.03314615598043
C            1.27004764053174        0.66752608460440        0.09159524027833
O           -0.00667253493049       -1.34362970965031       -0.07485741393427
H           -2.09723977054869        0.07667022403666       -0.41225478429567
H           -1.13714496275322        1.53746022675120       -0.75417733402384
H           -1.47199563111053        1.06832137522893        0.90840015828446
H            2.12712442946181        0.00925305890388        0.20283150653932
H            1.20298606013079        1.33305579574602        0.94831546049558
H            1.39910260097567        1.27835277011026       -0.79809571457918
10
 energy: -13.541315537657 gnorm: 0.001770584152 xtb: 6.7.1 (edcfbbe)
C           -1.26053221550731        0.68753186103770       -0.08871132797449
C            0.00100044860260       -0.13756606412370       -0.04168570736321
C            1.26929516051147        0.66667291365602        0.09810850594245
O           -0.00507746895491       -1.34394515058077       -0.10355397144762
H           -2.10727199422734        0.06863344491131       -0.37309891643710
H           -1.15014915949106        1.51537431951696       -0.78319908697653
H           -1.44505618332716        1.10278034045791        0.90140144586569
H            2.12614171070296        0.00824517701700        0.20804724405118
H            1.19665233279759        1.32571002602788        0.95931654786642
H            1.40190328699318        1.28541150267966       -0.78641994642677
10
 energy: -13.541321039708 gnorm: 0.000645988699 xtb: 6.7.1 (edcfbbe)
C           -1.26026312855508        0.68781300738551       -0.08723609899650
C            0.00118433922729       -0.13666799746718       -0.04436364039382
C            1.26845417893234        0.66726761332697        0.09814452142844
O           -0.00454453995574       -1.34309604985048       -0.10736551580706
H           -2.10729058265315        0.06848631889142       -0.37089470370112
H           -1.15233310619115        1.51487822056494       -0.78427297524431
H           -1.44293265227685        1.10184228159041        0.90341488536615
H            2.12439344249505        0.00711905259473        0.21307550415854
H            1.19423370960395        1.32843226468266        0.95879003035874
H            1.40600425747335        1.28277365888099       -0.78908722006905
10
 energy: -13.541323957090 gnorm: 0.000850568933 xtb: 6.7.1 (edcfbbe)
C           -1.26053205489454        0.68770041155748       -0.08588692412721
C            0.00105072779948       -0.13624998590363       -0.04323766485637
C            1.26821113881918        0.66726165688783        0.09842901332958
O           -0.00399465639074       -1.34246932339334       -0.11230194027050
H           -2.10770811817090        0.06865057727372       -0.37064149598498
H           -1.15304724987469        1.51487747976560       -0.78332506885071
H           -1.44343879964881        1.10102198336829        0.90462764185459
H            2.12404388561516        0.00699521465315        0.21716066092760
H            1.19360301148387        1.33192130721999        0.95654948637851
H            1.40871803336201        1.27913904917089       -0.79116892130051
10
 energy: -13.541330019425 gnorm: 0.001286024440 xtb: 6.7.1 (edcfbbe)
C           -1.26106457978614        0.68733592674635       -0.08346287971202
C            0.00122067475561       -0.13575876908224       -0.04685979974167
C            1.26799065976351        0.66696818368764        0.09933334876023
O           -0.00292201950056       -1.34166967764321       -0.12394522137995
H           -2.10938182865845        0.06856506159812       -0.36626211412215
H           -1.15625185870571        1.51482213189306       -0.78101270527037
H           -1.44087162869337        1.10066772466376        0.90725160907096
H            2.12290878181304        0.00723663731504        0.22949049665590
H            1.18869682178671        1.34009650737339        0.95023616544537
H            1.41658089532537        1.27058464404806       -0.79456411260628
10
 energy: -13.541339180888 gnorm: 0.001511443214 xtb: 6.7.1 (edcfbbe)
C           -1.26123406411956        0.68682002691432       -0.07838491251342
C            0.00166105800303       -0.13568164329445       -0.05438540449820
C            1.26712633296318        0.66705676492747        0.10165648543174
O           -0.00071027160792       -1.34039015604571       -0.15144572174221
H           -2.11107238166893        0.06801243367228       -0.35597936168772
H           -1.16087918548371        1.51516467140050       -0.77548849649642
H           -1.43343204470232        1.10006683842765        0.91388339735883
H            2.11811718954178        0.00776496668725        0.25773718790597
H            1.17538070815465        1.35935718300685        0.93579369034358
H            1.43194857701981        1.25067728490381       -0.80318207700214
10
 energy: -13.541341838716 gnorm: 0.000357277912 xtb: 6.7.1 (edcfbbe)
C           -1.26170407334471        0.68645241269116       -0.07672238171220
C            0.00178465688990       -0.13549019153202       -0.05759265416498
C            1.26740377902829        0.66727069830272        0.10248075725575
O           -0.00005261457618       -1.33913312465671       -0.16176821971973
H           -2.11222592907354        0.06809043401087       -0.35213188993990
H           -1.16289832317695        1.51547747748358       -0.77307904479855
H           -1.43059107836198        1.09879995073983        0.91677424862387
H            2.11611934674308        0.00870535303962        0.26921697745747
H            1.17039819943989        1.36650506921511        0.92947740482410
H            1.43867195453221        1.24217029130581       -0.80645041072581
10
 energy: -13.541342383979 gnorm: 0.000123646290 xtb: 6.7.1 (edcfbbe)
C           -1.26167565190889        0.68643539668186       -0.07564756063193
C            0.00181864932104       -0.13565739973444       -0.05872243291412
C            1.26729908817125        0.66755674178470        0.10264342686651
O            0.00046230112441       -1.33898427846679       -0.16663582448793
H           -2.11225006775417        0.06837607376303       -0.35137862751694
H           -1.16347961066326        1.51653972559563       -0.77080628094720
H           -1.42979242444304        1.09731871417944        0.91856531448760
H            2.11474436929973        0.00904136564803        0.27526561581986
H            1.16777681284860        1.37086960177883        0.92565731549675
H            1.44200245210433        1.23735242936967       -0.80873615907259
10
 energy: -13.541342684297 gnorm: 0.000187461631 xtb: 6.7.1 (edcfbbe)
C           -1.26169719113727        0.68643256131616       -0.07548954381555
C            0.00177737868082       -0.13561862830778       -0.05861779439345
C            1.26734093256211        0.66766001985271        0.10238195199667
O            0.00049096314923       -1.33888473676761       -0.16634109969468
H           -2.11211779501975        0.06872543473342       -0.35262659779959
H           -1.16298529305538        1.51750656726410       -0.76940170383984
H           -1.43043536191648        1.09582278441456        0.91921854835875
H            2.11452626176666        0.00919973037943        0.27614522441449
H            1.16748866875028        1.37183931560252        0.92448331795202
H            1.44251735431979        1.23616532211246       -0.80954751607879
10
 energy: -13.541343124820 gnorm: 0.000245938848 xtb: 6.7.1 (edcfbbe)
C           -1.26169970783154        0.68647385707213       -0.07563153346332
C            0.00170888683035       -0.13560113657135       -0.05790804747142
C            1.26744249834469        0.66771660032432        0.10179859395299
O            0.00030568032979       -1.33902363133700       -0.16363757579711
H           -2.11171704882897        0.06940622222765       -0.35557037045862
H           -1.16178518280073        1.51918682485731       -0.76739095173365
H           -1.43227297311143        1.09336939674578        0.91979330492192
H            2.11473463611385        0.00936558228756        0.27539019098207
H            1.16806167369421        1.37212475773829        0.92372986928694
H            1.44212745535978        1.23582989725528       -0.81036869311978
10
 energy: -13.541343633427 gnorm: 0.000178660912 xtb: 6.7.1 (edcfbbe)
C           -1.26162467354629        0.68656459566984       -0.07587252608501
C            0.00165337568986       -0.13562661512224       -0.05686098718416
C            1.26752271858269        0.66772669396577        0.10099288263340
O           -0.00002903430826       -1.33932762773528       -0.15963563959630
H           -2.11095986794737        0.07033673799520       -0.35983619169978
H           -1.15995922466181        1.52163987645520       -0.76449131542005
H           -1.43488715124171        1.08995515817656        0.92055679644301
H            2.11508836341930        0.00953057750898        0.27415076897182
H            1.16883500706505        1.37250454797073        0.92276475188803
H            1.44126640504854        1.23554442571523       -0.81156375285094
10
 energy: -13.541343972078 gnorm: 0.000073743114 xtb: 6.7.1 (edcfbbe)
C           -1.26157040833206        0.68663327700757       -0.07595242234827
C            0.00164517512949       -0.13567101061389       -0.05619674135546
C            1.26757503775720        0.66771685893417        0.10044771178387
O           -0.00028953375834       -1.33956982152719       -0.15714224958519
H           -2.11035036948831        0.07107055928950       -0.36292257707063
H           -1.15869493122575        1.52355756882961       -0.76210465423452
H           -1.43684369808331        1.08728437500506        0.92126866376489
H            2.11527155897004        0.00970873212162        0.27379227127388
H            1.16922729421077        1.37323922221741        0.92169402348997
H            1.44093579292028        1.23487860933612       -0.81267923861851
10
 energy: -13.541344197714 gnorm: 0.000060321406 xtb: 6.7.1 (edcfbbe)
C           -1.26154607480079        0.68666688904558       -0.07586190446453
C            0.00166409493740       -0.13568319373977       -0.05602008742870
C            1.26758512188359        0.66770477137137        0.10020011550540
O           -0.00038996351725       -1.33964458131304       -0.15647527985616
H           -2.11003251660314        0.07145330508127       -0.36437415723756
H           -1.15813383465247        1.52463872000401       -0.76062277802543
H           -1.43772675241717        1.08577475728090        0.92183321193571
H            2.11525032343599        0.00982502170815        0.27435222653808
H            1.16908502806786        1.37413464556591        0.92069228276600
H            1.44115049176598        1.23397803559560       -0.81351884263280
10
 energy: -13.541344397593 gnorm: 0.000092176095 xtb: 6.7.1 (edcfbbe)
C           -1.26154592906038        0.68667246461285       -0.07567197835383
C            0.00168687321103       -0.13568753476116       -0.05609615240442
C            1.26757165962351        0.66770953840190        0.10011270735014
O           -0.00040158701963       -1.33964419198894       -0.15679265189645
H           -2.10988863033557        0.07167227990507       -0.36498721663945
H           -1.15794397130143        1.52529091829596       -0.75959422418905
H           -1.43808576771294        1.08483500394884        0.92234335984035
H            2.11508638710956        0.00994339282572        0.27541796835902
H            1.16870953466688        1.37515998076618        0.91969128346022
H            1.44171734891899        1.23289651859354       -0.81421830842652
10
 energy: -13.541344617007 gnorm: 0.000104940107 xtb: 6.7.1 (edcfbbe)
C           -1.26156505677577        0.68666045738697       -0.07539480377609
C            0.00171003193880       -0.13566825688428       -0.05633377260091
C            1.26755715150173        0.66772999234362        0.10007990470269
O           -0.00033715188837       -1.33957226567317       -0.15769915241791
H           -2.10984710122076        0.07183893520849       -0.36524249733499
H           -1.15793039906386        1.52582609411441       -0.75863816893096
H           -1.43819328834927        1.08403508331145        0.92292294966330
H            2.11482628156091        0.01006328803173        0.27697479296005
H            1.16809670271818        1.37641510279614        0.91850870856335
H            1.44258874767844        1.23151993996461       -0.81497317372853
10
 energy: -13.541344863368 gnorm: 0.000085819949 xtb: 6.7.1 (edcfbbe)
C           -1.26159133593751        0.68663707623799       -0.07506353412407
C            0.00171780426349       -0.13564640481580       -0.05660624700375
C            1.26753467756898        0.66777667764524        0.10004029262416
O           -0.00025135538850       -1.33948009133030       -0.15876918814306
H           -2.10981448950505        0.07203907934534       -0.36554891727200
H           -1.15790666622986        1.52643829613611       -0.75752020447895
H           -1.43832456562825        1.08308346858960        0.92360769668950
H            2.11447676692547        0.01022198025250        0.27878990661788
H            1.16741843726176        1.37789335263204        0.91711186241533
H            1.44364664476949        1.22988493590725       -0.81583688022503
10
 energy: -13.541345119910 gnorm: 0.000051982406 xtb: 6.7.1 (edcfbbe)
C           -1.26162618402934        0.68661380489939       -0.07472407567842