10
 energy: -13.541346462880 gnorm: 0.000026469501 xtb: 6.7.1 (edcfbbe)
C           -1.26166358453542        0.68665097067903       -0.07355004468767
C            0.00168811919627       -0.13551792502393       -0.05657376811496
C            1.26761996671324        0.66806060040638        0.09855085369595
O           -0.00022210613660       -1.33933318948170       -0.15874307821117
H           -2.10848634165608        0.07473268707529       -0.37370019680282
H           -1.15513781192284        1.53353896807112       -0.74669366244766
H           -1.44306971334066        1.07244471051522        0.92850918501463
H            2.11309065473248        0.01140638416122        0.28726371684001
H            1.16470074984471        1.38672932396070        0.90766343666622
H            1.44838598520492        1.22013584023664       -0.82252165485251
