      -----------------------------------------------------------      
     |                   =====================                   |     
     |                           x T B                           |     
     |                   =====================                   |     
     |                         S. Grimme                         |     
     |          Mulliken Center for Theoretical Chemistry        |     
     |                    University of Bonn                     |     
      -----------------------------------------------------------      

   * xtb version 6.7.1 (edcfbbe) compiled by 'albert@albert-system' on 2024-07-22

   xtb is free software: you can redistribute it and/or modify it under
   the terms of the GNU Lesser General Public License as published by
   the Free Software Foundation, either version 3 of the License, or
   (at your option) any later version.
   
   xtb is distributed in the hope that it will be useful,
   but WITHOUT ANY WARRANTY; without even the implied warranty of
   MERCHANTABILITY or FITNESS FOR A PARTICULAR PURPOSE.  See the
   GNU Lesser General Public License for more details.
   
   Cite this work as:
   * C. Bannwarth, E. Caldeweyher, S. Ehlert, A. Hansen, P. Pracht,
     J. Seibert, S. Spicher, S. Grimme, WIREs Comput. Mol. Sci., 2020, 11,
     e01493. DOI: 10.1002/wcms.1493
   
   for GFN2-xTB:
   * C. Bannwarth, S. Ehlert and S. Grimme., J. Chem. Theory Comput., 2019,
     15, 1652-1671. DOI: 10.1021/acs.jctc.8b01176
   for GFN1-xTB:
   * S. Grimme, C. Bannwarth, P. Shushkov, J. Chem. Theory Comput., 2017,
     13, 1989-2009. DOI: 10.1021/acs.jctc.7b00118
   for GFN0-xTB:
   * P. Pracht, E. Caldeweyher, S. Ehlert, S. Grimme, ChemRxiv, 2019, preprint.
     DOI: 10.26434/chemrxiv.8326202.v1
   for GFN-FF:
   * S. Spicher and S. Grimme, Angew. Chem. Int. Ed., 2020, 59, 15665-15673.
     DOI: 10.1002/anie.202004239
   
   for ALPB and GBSA implicit solvation:
   * S. Ehlert, M. Stahn, S. Spicher, S. Grimme, J. Chem. Theory Comput.,
     2021, 17, 4250-4261. DOI: 10.1021/acs.jctc.1c00471
   
   for ddCOSMO and CPCM-X implicit solvation:
   * M. Stahn, S. Ehlert, S. Grimme, J. Phys. Chem. A,
     2023, XX, XXXX-XXXX. DOI: 10.1021/acs.jpca.3c04382
   
   for DFT-D4:
   * E. Caldeweyher, C. Bannwarth and S. Grimme, J. Chem. Phys., 2017,
     147, 034112. DOI: 10.1063/1.4993215
   * E. Caldeweyher, S. Ehlert, A. Hansen, H. Neugebauer, S. Spicher,
     C. Bannwarth and S. Grimme, J. Chem. Phys., 2019, 150, 154122.
     DOI: 10.1063/1.5090222
   * E. Caldeweyher, J.-M. Mewes, S. Ehlert and S. Grimme, Phys. Chem. Chem. Phys.
     2020, 22, 8499-8512. DOI: 10.1039/D0CP00502A
   
   for sTDA-xTB:
   * S. Grimme and C. Bannwarth, J. Chem. Phys., 2016, 145, 054103.
     DOI: 10.1063/1.4959605
   
   in the mass-spec context:
   * V. Asgeirsson, C. Bauer and S. Grimme, Chem. Sci., 2017, 8, 4879.
     DOI: 10.1039/c7sc00601b
   * J. Koopman and S. Grimme, ACS Omega 2019, 4, 12, 15120-15133.
     DOI: 10.1021/acsomega.9b02011
   
   for metadynamics refer to:
   * S. Grimme, J. Chem. Theory Comput., 2019, 155, 2847-2862
     DOI: 10.1021/acs.jctc.9b00143
   
   for SPH calculations refer to:
   * S. Spicher and S. Grimme, J. Chem. Theory Comput., 2021, 17, 1701-1714
     DOI: 10.1021/acs.jctc.0c01306
   
   for ONIOM refer to:
   * C. Plett, A. Katbashev, S. Ehlert, S. Grimme, M. Bursch,
     Phys. Chem. Chem. Phys., 2023, 25, 17860-17868. DOI: 10.1039/D3CP02178E
   
   for DIPRO refer to:
   * J. Kohn, N. Gildemeister, S. Grimme, D. Fazzi, A. Hansen,
     J. Chem. Phys., 2023, just accepted.
   
   for PTB refer to:
   * S. Grimme, M. Mueller, A. Hansen, J. Chem. Phys., 2023, 158, 124111.
     DOI: 10.1063/5.0137838
   
   with help from (in alphabetical order)
   P. Atkinson, C. Bannwarth, F. Bohle, G. Brandenburg, E. Caldeweyher
   M. Checinski, S. Dohm, S. Ehlert, S. Ehrlich, I. Gerasimov, C. Hölzer
   A. Katbashev, J. Kohn, J. Koopman, C. Lavigne, S. Lehtola, F. März, M. Müller,
   F. Musil, H. Neugebauer, J. Pisarek, C. Plett, P. Pracht, F. Pultar,
   J. Seibert, P. Shushkov, S. Spicher, M. Stahn, M. Steiner, T. Strunk,
   J. Stückrath, T. Rose, and J. Unsleber
   
 * started run on 2024/08/07 at 21:32:08.805     
   ID    Z sym.   atoms
    1    6 C      1-3, 5, 6
    2    8 O      4
    3    7 N      7
    4    1 H      8-14

           -------------------------------------------------
          |                Calculation Setup                |
           -------------------------------------------------

          program call               : xtb crest_best.xyz --gfn 2 --alpb toluene --opt vtight -c 0 --iterations 40
          coordinate file            : crest_best.xyz
          omp threads                :                     8


           -------------------------------------------------
          |                 G F N 2 - x T B                 |
           -------------------------------------------------

        Reference                      10.1021/acs.jctc.8b01176
      * Hamiltonian:
        H0-scaling (s, p, d)           1.850000    2.230000    2.230000
        zeta-weighting                 0.500000
      * Dispersion:
        s8                             2.700000
        a1                             0.520000
        a2                             5.000000
        s9                             5.000000
      * Repulsion:
        kExp                           1.500000    1.000000
        rExp                           1.000000
      * Coulomb:
        alpha                          2.000000
        third order                    shell-resolved
        anisotropic                    true
        a3                             3.000000
        a5                             4.000000
        cn-shift                       1.200000
        cn-exp                         4.000000
        max-rad                        5.000000

      * Solvation model:               ALPB
        Solvent                        toluene
        Parameter file                 internal GFN2-xTB/ALPB
        Dielectric constant                7.0000E+00
        Reference state                gsolv [1 M gas/solution]
        Free energy shift                  2.2081E-03 Eh       1.3856E+00 kcal/mol
        Temperature                        2.9815E+02 K
        Density                            8.6700E-01 kg/L
        Solvent mass                       7.8110E+01 g/mol
        Interaction kernel             P16
        Born radius scaling (c1)           1.7172E+00
        Born radii integrator          GBOBC
        Born offset                        0.0000E+00 a0       0.0000E+00 AA
        H-bond correction              false
        Ion screening                  false
        Surface tension                    1.0000E-05 Eh       1.5569E+01 dyn/cm
        Grid points                               230 per atom

          ...................................................
          :                      SETUP                      :
          :.................................................:
          :  # basis functions                  35          :
          :  # atomic orbitals                  35          :
          :  # shells                           21          :
          :  # electrons                        38          :
          :  max. iterations                    40          :
          :  Hamiltonian                  GFN2-xTB          :
          :  restarted?                      false          :
          :  GBSA solvation                   true          :
          :  PC potential                    false          :
          :  electronic temp.          300.0000000     K    :
          :  accuracy                    1.0000000          :
          :  -> integral cutoff          0.2500000E+02      :
          :  -> integral neglect         0.1000000E-07      :
          :  -> SCF convergence          0.1000000E-05 Eh   :
          :  -> wf. convergence          0.1000000E-03 e    :
          :  Broyden damping             0.4000000          :
          :  net charge                          0          :
          :  unpaired electrons                  0          :
          ...................................................

 iter      E             dE          RMSdq      gap      omega  full diag
   1    -21.4464369 -0.214464E+02  0.514E+00    5.74       0.0  T
   2    -21.4702341 -0.237972E-01  0.296E+00    5.27       1.0  T
   3    -21.4517379  0.184962E-01  0.173E+00    4.65       1.0  T
   4    -21.4765528 -0.248149E-01  0.573E-01    4.63       1.0  T
   5    -21.4787998 -0.224707E-02  0.147E-01    4.67       1.0  T
   6    -21.4788590 -0.591850E-04  0.475E-02    4.72       1.0  T
   7    -21.4788625 -0.344706E-05  0.167E-02    4.73       1.6  T
   8    -21.4788630 -0.520352E-06  0.586E-03    4.72       4.6  T
   9    -21.4788631 -0.113879E-06  0.257E-03    4.72      10.4  T
  10    -21.4788631 -0.121046E-07  0.616E-04    4.72      43.4  T
  11    -21.4788631 -0.500371E-09  0.111E-04    4.72     239.8  T

   *** convergence criteria satisfied after 11 iterations ***

         #    Occupation            Energy/Eh            Energy/eV
      -------------------------------------------------------------
         1        2.0000           -0.7219760             -19.6460
       ...           ...                  ...                  ...
        13        2.0000           -0.4952662             -13.4769
        14        2.0000           -0.4893494             -13.3159
        15        2.0000           -0.4841563             -13.1746
        16        2.0000           -0.4625825             -12.5875
        17        2.0000           -0.4494156             -12.2292
        18        2.0000           -0.4431573             -12.0589
        19        2.0000           -0.4184669             -11.3871 (HOMO)
        20                         -0.2449299              -6.6649 (LUMO)
        21                         -0.2317088              -6.3051
        22                         -0.0394363              -1.0731
        23                         -0.0227936              -0.6202
        24                          0.0358734               0.9762
       ...                                ...                  ...
        35                          1.0752693              29.2596
      -------------------------------------------------------------
                  HL-Gap            0.1735370 Eh            4.7222 eV
             Fermi-level           -0.3316984 Eh           -9.0260 eV

 SCC (total)                   0 d,  0 h,  0 min,  0.008 sec
 SCC setup                      ...        0 min,  0.000 sec (  4.072%)
 Dispersion                     ...        0 min,  0.000 sec (  1.253%)
 classical contributions        ...        0 min,  0.000 sec (  0.212%)
 integral evaluation            ...        0 min,  0.001 sec (  7.433%)
 iterations                     ...        0 min,  0.006 sec ( 68.232%)
 molecular gradient             ...        0 min,  0.001 sec ( 16.855%)
 printout                       ...        0 min,  0.000 sec (  1.538%)

         :::::::::::::::::::::::::::::::::::::::::::::::::::::
         ::                     SUMMARY                     ::
         :::::::::::::::::::::::::::::::::::::::::::::::::::::
         :: total energy             -21.200023216300 Eh    ::
         :: total w/o Gsasa/hb       -21.191420173473 Eh    ::
         :: gradient norm              0.056309326037 Eh/a0 ::
         :: HOMO-LUMO gap              4.722183309494 eV    ::
         ::.................................................::
         :: SCC energy               -21.478845276649 Eh    ::
         :: -> isotropic ES            0.030077011348 Eh    ::
         :: -> anisotropic ES          0.003386397292 Eh    ::
         :: -> anisotropic XC          0.020008776970 Eh    ::
         :: -> dispersion             -0.008723829167 Eh    ::
         :: -> Gsolv                  -0.010597795461 Eh    ::
         ::    -> Gelec               -0.001994752633 Eh    ::
         ::    -> Gsasa               -0.010811185966 Eh    ::
         ::    -> Ghb                  0.000000000000 Eh    ::
         ::    -> Gshift               0.002208143139 Eh    ::
         :: repulsion energy           0.278822060349 Eh    ::
         :: add. restraining           0.000000000000 Eh    ::
         :: total charge               0.000000000000 e     ::
         :::::::::::::::::::::::::::::::::::::::::::::::::::::

      ----------------------------------------------------------- 
     |                   =====================                   |
     |                        A N C O P T                        |
     |                   =====================                   |
     |               Approximate Normal Coordinate               |
     |                Rational Function Optimizer                |
      ----------------------------------------------------------- 
      ----------------------------------------------------------- 
     |                   =====================                   |
     |                        A N C O P T                        |
     |                   =====================                   |
     |               Approximate Normal Coordinate               |
     |                Rational Function Optimizer                |
      ----------------------------------------------------------- 

          ...................................................
          :                      SETUP                      :
          :.................................................:
          :   optimization level         verytight          :
          :   max. optcycles                   280          :
          :   ANC micro-cycles                  20          :
          :   degrees of freedom                36          :
          :.................................................:
          :   RF solver                   davidson          :
          :   write xtbopt.log                true          :
          :   linear?                        false          :
          :   energy convergence         0.1000000E-06 Eh   :
          :   grad. convergence          0.2000000E-03 Eh/α :
          :   maxmium RF displ.          1.0000000          :
          :   Hlow (freq-cutoff)         0.1000000E-01      :
          :   Hmax (freq-cutoff)         5.0000000          :
          :   S6 in model hess.         20.0000000          :
          ...................................................

generating ANC from exact Hessian ...
Using Lindh-Hessian (1995)
 Shifting diagonal of input Hessian by   6.226116079625527E-003
 Lowest  eigenvalues of input Hessian
    0.000000    0.000000    0.000000    0.000000    0.000000    0.000000
    0.010000    0.012541    0.015695    0.019842    0.021632    0.037720
    0.047175    0.053480    0.057064    0.062888    0.065090    0.073247
 Highest eigenvalues
    1.122725    1.214800    1.253437    1.305729    1.381277    2.532063
 

........................................................................
.............................. CYCLE    1 ..............................
........................................................................

 iter      E             dE          RMSdq      gap      omega  full diag
   1    -21.4788631 -0.214789E+02  0.427E-05    4.72       0.0  T
   2    -21.4788631 -0.186162E-11  0.269E-05    4.72     992.0  T
   3    -21.4788631  0.165912E-11  0.176E-05    4.72    1521.9  T
     SCC iter.                  ...        0 min,  0.005 sec
     gradient                   ...        0 min,  0.002 sec
 * total energy  :   -21.2000232 Eh     change       -0.4920153E-10 Eh
   gradient norm :     0.0563102 Eh/α   predicted     0.0000000E+00 (-100.00%)
   displ. norm   :     0.2092000 α      lambda       -0.4074082E-02
   maximum displ.:     0.1528376 α      in ANC's #5, #11, #20, ...

........................................................................
.............................. CYCLE    2 ..............................
........................................................................

 iter      E             dE          RMSdq      gap      omega  full diag
   1    -21.4954287 -0.214954E+02  0.327E-01    4.86       0.0  T
   2    -21.4954550 -0.263290E-04  0.188E-01    4.85       1.0  T
   3    -21.4953796  0.754384E-04  0.927E-02    4.86       1.0  T
   4    -21.4954700 -0.904212E-04  0.152E-02    4.85       1.8  T
   5    -21.4954719 -0.195171E-05  0.528E-03    4.85       5.1  T
   6    -21.4954720 -0.241465E-07  0.132E-03    4.85      20.2  T
   7    -21.4954720 -0.136646E-08  0.312E-04    4.85      85.6  T
   8    -21.4954720 -0.132598E-09  0.797E-05    4.85     335.4  T
     SCC iter.                  ...        0 min,  0.003 sec
     gradient                   ...        0 min,  0.002 sec
 * total energy  :   -21.2021955 Eh     change       -0.2172286E-02 Eh
   gradient norm :     0.0200454 Eh/α   predicted    -0.2126190E-02 (  -2.12%)
   displ. norm   :     0.2378076 α      lambda       -0.1287549E-02
   maximum displ.:     0.2157106 α      in ANC's #1, #3, #8, ...

........................................................................
.............................. CYCLE    3 ..............................
........................................................................

 iter      E             dE          RMSdq      gap      omega  full diag
   1    -21.5000181 -0.215000E+02  0.526E-01    4.88       0.0  T
   2    -21.5000776 -0.594684E-04  0.291E-01    4.89       1.0  T
   3    -21.5000433  0.342476E-04  0.724E-02    4.89       1.0  T
   4    -21.5001019 -0.586241E-04  0.137E-02    4.89       1.9  T
   5    -21.5001028 -0.858497E-06  0.592E-03    4.89       4.5  T
   6    -21.5001029 -0.117182E-06  0.165E-03    4.89      16.2  T
   7    -21.5001029 -0.579293E-08  0.397E-04    4.89      67.4  T
   8    -21.5001029 -0.929248E-10  0.168E-04    4.89     159.0  T
     SCC iter.                  ...        0 min,  0.004 sec
     gradient                   ...        0 min,  0.002 sec
 * total energy  :   -21.2025212 Eh     change       -0.3257156E-03 Eh
   gradient norm :     0.0145701 Eh/α   predicted    -0.6801779E-03 ( 108.83%)
   displ. norm   :     0.1132557 α      lambda       -0.7675373E-03
   maximum displ.:     0.0931827 α      in ANC's #5, #4, #8, ...

........................................................................
.............................. CYCLE    4 ..............................
........................................................................

 iter      E             dE          RMSdq      gap      omega  full diag
   1    -21.4994486 -0.214994E+02  0.190E-01    4.90       0.0  T
   2    -21.4994541 -0.546252E-05  0.108E-01    4.90       1.0  T
   3    -21.4994367  0.174032E-04  0.426E-02    4.90       1.0  T
   4    -21.4994579 -0.212708E-04  0.504E-03    4.90       5.3  T
   5    -21.4994580 -0.488485E-07  0.275E-03    4.90       9.7  T
   6    -21.4994580 -0.739318E-08  0.388E-04    4.90      68.9  T
   7    -21.4994580 -0.122274E-09  0.167E-04    4.90     160.2  T
     SCC iter.                  ...        0 min,  0.008 sec
     gradient                   ...        0 min,  0.004 sec
 * total energy  :   -21.2030041 Eh     change       -0.4829323E-03 Eh
   gradient norm :     0.0081941 Eh/α   predicted    -0.3886932E-03 ( -19.51%)
   displ. norm   :     0.1460159 α      lambda       -0.2951095E-03
   maximum displ.:     0.1023155 α      in ANC's #5, #1, #8, ...

........................................................................
.............................. CYCLE    5 ..............................
........................................................................

 iter      E             dE          RMSdq      gap      omega  full diag
   1    -21.4952749 -0.214953E+02  0.110E-01    4.87       0.0  T
   2    -21.4952763 -0.147630E-05  0.661E-02    4.87       1.0  T
   3    -21.4952762  0.122514E-06  0.808E-03    4.87       3.3  T
   4    -21.4952767 -0.457878E-06  0.344E-03    4.87       7.8  T
   5    -21.4952767 -0.327779E-07  0.198E-03    4.87      13.5  T
   6    -21.4952767 -0.251213E-07  0.307E-04    4.87      86.9  T
   7    -21.4952767 -0.417764E-09  0.143E-04    4.87     186.5  T
     SCC iter.                  ...        0 min,  0.008 sec
     gradient                   ...        0 min,  0.005 sec
 * total energy  :   -21.2032086 Eh     change       -0.2044706E-03 Eh
   gradient norm :     0.0079856 Eh/α   predicted    -0.1507036E-03 ( -26.30%)
   displ. norm   :     0.2251683 α      lambda       -0.2717210E-03
   maximum displ.:     0.1513869 α      in ANC's #1, #5, #3, ...

........................................................................
.............................. CYCLE    6 ..............................
........................................................................

 iter      E             dE          RMSdq      gap      omega  full diag
   1    -21.4932441 -0.214932E+02  0.192E-01    4.87       0.0  T
   2    -21.4932479 -0.388247E-05  0.113E-01    4.87       1.0  T
   3    -21.4932491 -0.118343E-05  0.105E-02    4.86       2.6  T
   4    -21.4932493 -0.143065E-06  0.667E-03    4.87       4.0  T
   5    -21.4932494 -0.145027E-06  0.276E-03    4.87       9.7  T
   6    -21.4932495 -0.762708E-07  0.480E-04    4.87      55.7  T
   7    -21.4932495 -0.374552E-09  0.188E-04    4.87     142.2  T
     SCC iter.                  ...        0 min,  0.007 sec
     gradient                   ...        0 min,  0.001 sec
 * total energy  :   -21.2034077 Eh     change       -0.1990360E-03 Eh
   gradient norm :     0.0100279 Eh/α   predicted    -0.1427511E-03 ( -28.28%)
   displ. norm   :     0.2487416 α      lambda       -0.2651461E-03
   maximum displ.:     0.1753294 α      in ANC's #1, #5, #3, ...

........................................................................
.............................. CYCLE    7 ..............................
........................................................................

 iter      E             dE          RMSdq      gap      omega  full diag
   1    -21.4926478 -0.214926E+02  0.231E-01    4.88       0.0  T
   2    -21.4926539 -0.606775E-05  0.134E-01    4.87       1.0  T
   3    -21.4926560 -0.212716E-05  0.122E-02    4.87       2.2  T
   4    -21.4926557  0.297427E-06  0.888E-03    4.87       3.0  T
   5    -21.4926564 -0.666192E-06  0.109E-03    4.87      24.4  T
   6    -21.4926564 -0.438246E-08  0.477E-04    4.87      56.0  T
   7    -21.4926564 -0.420187E-09  0.129E-04    4.87     206.6  T
     SCC iter.                  ...        0 min,  0.005 sec
     gradient                   ...        0 min,  0.003 sec
 * total energy  :   -21.2035978 Eh     change       -0.1901933E-03 Eh
   gradient norm :     0.0101256 Eh/α   predicted    -0.1407811E-03 ( -25.98%)
   displ. norm   :     0.1975431 α      lambda       -0.2660581E-03
   maximum displ.:     0.1408896 α      in ANC's #1, #5, #3, ...

........................................................................
.............................. CYCLE    8 ..............................
........................................................................

 iter      E             dE          RMSdq      gap      omega  full diag
   1    -21.4954153 -0.214954E+02  0.191E-01    4.88       0.0  T
   2    -21.4954199 -0.458814E-05  0.111E-01    4.88       1.0  T
   3    -21.4954199 -0.512150E-07  0.151E-02    4.88       1.8  T
   4    -21.4954216 -0.160625E-05  0.778E-03    4.88       3.4  T
   5    -21.4954218 -0.195539E-06  0.270E-03    4.88       9.9  T
   6    -21.4954218 -0.426309E-07  0.459E-04    4.88      58.2  T
   7    -21.4954218 -0.345800E-09  0.229E-04    4.88     116.9  T
     SCC iter.                  ...        0 min,  0.007 sec
     gradient                   ...        0 min,  0.002 sec
 * total energy  :   -21.2037882 Eh     change       -0.1903396E-03 Eh
   gradient norm :     0.0052864 Eh/α   predicted    -0.1382206E-03 ( -27.38%)
   displ. norm   :     0.2342411 α      lambda       -0.1727886E-03
   maximum displ.:     0.1783894 α      in ANC's #1, #5, #3, ...

........................................................................
.............................. CYCLE    9 ..............................
........................................................................

 iter      E             dE          RMSdq      gap      omega  full diag
   1    -21.4953806 -0.214954E+02  0.255E-01    4.87       0.0  T
   2    -21.4953889 -0.839043E-05  0.146E-01    4.87       1.0  T
   3    -21.4953922 -0.322146E-05  0.114E-02    4.87       2.3  T
   4    -21.4953921  0.200876E-07  0.365E-03    4.87       7.3  T
   5    -21.4953922 -0.409282E-07  0.192E-03    4.87      14.0  T
   6    -21.4953922 -0.367898E-07  0.496E-04    4.87      53.9  T
   7    -21.4953922 -0.570463E-09  0.183E-04    4.87     146.2  T
     SCC iter.                  ...        0 min,  0.003 sec
     gradient                   ...        0 min,  0.001 sec
 * total energy  :   -21.2039010 Eh     change       -0.1128196E-03 Eh
   gradient norm :     0.0082303 Eh/α   predicted    -0.9113829E-04 ( -19.22%)
   displ. norm   :     0.1831915 α      lambda       -0.1587874E-03
   maximum displ.:     0.1229116 α      in ANC's #1, #5, #22, ...

........................................................................
.............................. CYCLE   10 ..............................
........................................................................

 iter      E             dE          RMSdq      gap      omega  full diag
   1    -21.4998812 -0.214999E+02  0.162E-01    4.91       0.0  T
   2    -21.4998840 -0.273926E-05  0.954E-02    4.90       1.0  T
   3    -21.4998759  0.804926E-05  0.293E-02    4.91       1.0  T
   4    -21.4998856 -0.971727E-05  0.605E-03    4.90       4.4  T
   5    -21.4998857 -0.624013E-07  0.223E-03    4.90      12.0  T
   6    -21.4998857 -0.123225E-07  0.414E-04    4.90      64.5  T
   7    -21.4998857 -0.338474E-09  0.194E-04    4.90     137.6  T
     SCC iter.                  ...        0 min,  0.009 sec
     gradient                   ...        0 min,  0.001 sec
 * total energy  :   -21.2039706 Eh     change       -0.6955543E-04 Eh
   gradient norm :     0.0071879 Eh/α   predicted    -0.8205770E-04 (  17.97%)
   displ. norm   :     0.2405427 α      lambda       -0.9706822E-04
   maximum displ.:     0.1877585 α      in ANC's #1, #5, #8, ...

........................................................................
.............................. CYCLE   11 ..............................
........................................................................

 iter      E             dE          RMSdq      gap      omega  full diag
   1    -21.4961543 -0.214962E+02  0.266E-01    4.88       0.0  T
   2    -21.4961632 -0.892521E-05  0.152E-01    4.88       1.0  T
   3    -21.4961638 -0.610156E-06  0.195E-02    4.88       1.4  T
   4    -21.4961667 -0.282392E-05  0.963E-03    4.88       2.8  T
   5    -21.4961670 -0.301990E-06  0.170E-03    4.88      15.7  T
   6    -21.4961670 -0.956818E-08  0.537E-04    4.88      49.7  T
   7    -21.4961670 -0.213685E-09  0.151E-04    4.88     176.9  T
     SCC iter.                  ...        0 min,  0.009 sec
     gradient                   ...        0 min,  0.003 sec
 * total energy  :   -21.2040117 Eh     change       -0.4114243E-04 Eh
   gradient norm :     0.0058830 Eh/α   predicted    -0.5134253E-04 (  24.79%)
   displ. norm   :     0.0467036 α      lambda       -0.5184941E-04
   maximum displ.:     0.0415696 α      in ANC's #5, #1, #3, ...

........................................................................
.............................. CYCLE   12 ..............................
........................................................................

 iter      E             dE          RMSdq      gap      omega  full diag
   1    -21.4974678 -0.214975E+02  0.493E-02    4.86       0.0  T
   2    -21.4974683 -0.481892E-06  0.295E-02    4.86       1.0  T
   3    -21.4974674  0.935603E-06  0.951E-03    4.87       2.8  T
   4    -21.4974685 -0.107321E-05  0.239E-03    4.87      11.2  T
   5    -21.4974685 -0.380950E-07  0.712E-04    4.87      37.5  T
   6    -21.4974685 -0.362881E-09  0.306E-04    4.87      87.5  T
     SCC iter.                  ...        0 min,  0.007 sec
     gradient                   ...        0 min,  0.005 sec
 * total energy  :   -21.2040149 Eh     change       -0.3169213E-05 Eh
   gradient norm :     0.0076609 Eh/α   predicted    -0.2598167E-04 ( 719.81%)
   displ. norm   :     0.0362432 α      lambda       -0.5101651E-04
   maximum displ.:     0.0316301 α      in ANC's #5, #2, #1, ...

........................................................................
.............................. CYCLE   13 ..............................
........................................................................

 iter      E             dE          RMSdq      gap      omega  full diag
   1    -21.4983705 -0.214984E+02  0.397E-02    4.90       0.0  T
   2    -21.4983709 -0.367702E-06  0.231E-02    4.89       1.2  T
   3    -21.4983708  0.102295E-06  0.478E-03    4.89       5.6  T
   4    -21.4983709 -0.187358E-06  0.172E-03    4.89      15.6  T
   5    -21.4983710 -0.158559E-07  0.594E-04    4.89      45.0  T
   6    -21.4983710 -0.607638E-09  0.251E-04    4.89     106.4  T
     SCC iter.                  ...        0 min,  0.003 sec
     gradient                   ...        0 min,  0.006 sec
 * total energy  :   -21.2040399 Eh     change       -0.2499826E-04 Eh
   gradient norm :     0.0018809 Eh/α   predicted    -0.2554229E-04 (   2.18%)
   displ. norm   :     0.1363111 α      lambda       -0.1436514E-04
   maximum displ.:     0.1033465 α      in ANC's #1, #5, #8, ...

........................................................................
.............................. CYCLE   14 ..............................
........................................................................

 iter      E             dE          RMSdq      gap      omega  full diag
   1    -21.4968094 -0.214968E+02  0.153E-01    4.88       0.0  T
   2    -21.4968121 -0.268924E-05  0.875E-02    4.88       1.0  T
   3    -21.4968128 -0.731384E-06  0.828E-03    4.88       3.2  T
   4    -21.4968130 -0.173113E-06  0.552E-03    4.88       4.8  T
   5    -21.4968132 -0.167345E-06  0.125E-03    4.88      21.5  T
   6    -21.4968132 -0.818039E-08  0.318E-04    4.88      84.1  T
   7    -21.4968132 -0.131951E-09  0.133E-04    4.88     201.0  T
     SCC iter.                  ...        0 min,  0.005 sec
     gradient                   ...        0 min,  0.002 sec
 * total energy  :   -21.2040445 Eh     change       -0.4604866E-05 Eh
   gradient norm :     0.0029091 Eh/α   predicted    -0.7242755E-05 (  57.28%)
   displ. norm   :     0.0229657 α      lambda       -0.9527401E-05
   maximum displ.:     0.0158316 α      in ANC's #1, #5, #2, ...

........................................................................
.............................. CYCLE   15 ..............................
........................................................................

 iter      E             dE          RMSdq      gap      omega  full diag
   1    -21.4975913 -0.214976E+02  0.228E-02    4.88       0.0  T
   2    -21.4975914 -0.719276E-07  0.132E-02    4.88       2.0  T
   3    -21.4975912  0.133491E-06  0.387E-03    4.89       6.9  T
   4    -21.4975914 -0.173587E-06  0.881E-04    4.88      30.3  T
   5    -21.4975914 -0.148622E-08  0.240E-04    4.88     111.3  T
     SCC iter.                  ...        0 min,  0.006 sec
     gradient                   ...        0 min,  0.002 sec
 * total energy  :   -21.2040508 Eh     change       -0.6333118E-05 Eh
   gradient norm :     0.0010822 Eh/α   predicted    -0.4765604E-05 ( -24.75%)
   displ. norm   :     0.0125514 α      lambda       -0.2766347E-05
   maximum displ.:     0.0089370 α      in ANC's #2, #6, #24, ...

........................................................................
.............................. CYCLE   16 ..............................
........................................................................

 iter      E             dE          RMSdq      gap      omega  full diag
   1    -21.4982110 -0.214982E+02  0.246E-02    4.89       0.0  T
   2    -21.4982111 -0.946555E-07  0.138E-02    4.89       1.9  T
   3    -21.4982110  0.918034E-07  0.340E-03    4.89       7.9  T
   4    -21.4982112 -0.140214E-06  0.597E-04    4.89      44.7  T
   5    -21.4982112 -0.665050E-09  0.210E-04    4.89     127.4  T
     SCC iter.                  ...        0 min,  0.003 sec
     gradient                   ...        0 min,  0.002 sec
 * total energy  :   -21.2040524 Eh     change       -0.1577663E-05 Eh
   gradient norm :     0.0007685 Eh/α   predicted    -0.1384383E-05 ( -12.25%)
   displ. norm   :     0.0056526 α      lambda       -0.4820191E-06
   maximum displ.:     0.0036944 α      in ANC's #5, #1, #3, ...

........................................................................
.............................. CYCLE   17 ..............................
........................................................................

 iter      E             dE          RMSdq      gap      omega  full diag
   1    -21.4980796 -0.214981E+02  0.703E-03    4.89       0.0  T
   2    -21.4980796 -0.809907E-08  0.405E-03    4.89       6.6  T
   3    -21.4980796  0.413288E-08  0.776E-04    4.89      34.4  T
   4    -21.4980796 -0.628149E-08  0.293E-04    4.89      91.3  T
     SCC iter.                  ...        0 min,  0.005 sec
     gradient                   ...        0 min,  0.001 sec
 * total energy  :   -21.2040528 Eh     change       -0.3877464E-06 Eh
   gradient norm :     0.0003598 Eh/α   predicted    -0.2397586E-06 ( -38.17%)
   displ. norm   :     0.0026990 α      lambda       -0.1396797E-06
   maximum displ.:     0.0013999 α      in ANC's #2, #1, #5, ...

........................................................................
.............................. CYCLE   18 ..............................
........................................................................

 iter      E             dE          RMSdq      gap      omega  full diag
   1    -21.4979214 -0.214979E+02  0.396E-03    4.89       0.0  T
   2    -21.4979214 -0.244428E-08  0.227E-03    4.89      11.8  T
   3    -21.4979214  0.723465E-08  0.875E-04    4.89      30.5  T
   4    -21.4979214 -0.877365E-08  0.143E-04    4.89     187.0  T
     SCC iter.                  ...        0 min,  0.014 sec
     gradient                   ...        0 min,  0.005 sec
 * total energy  :   -21.2040528 Eh     change       -0.6449329E-07 Eh
   gradient norm :     0.0001564 Eh/α   predicted    -0.7107655E-07 (  10.21%)
   displ. norm   :     0.0036280 α      lambda       -0.5551237E-07
   maximum displ.:     0.0029153 α      in ANC's #1, #5, #4, ...

   *** GEOMETRY OPTIMIZATION CONVERGED AFTER 18 ITERATIONS ***

------------------------------------------------------------------------
 total energy gain   :        -0.0040296 Eh       -2.5286 kcal/mol
 total RMSD          :         0.5162662 a0        0.2732 Å
 total power (kW/mol):        -0.5877656 (step)  -48.8610 (real)
------------------------------------------------------------------------

 ANCopt (total)                0 d,  0 h,  0 min,  0.217 sec
 optimizer setup                ...        0 min,  0.000 sec (  0.051%)
 model hessian                  ...        0 min,  0.006 sec (  2.638%)
 ANC generation                 ...        0 min,  0.000 sec (  0.147%)
 coordinate transformation      ...        0 min,  0.000 sec (  0.114%)
 single point calculation       ...        0 min,  0.194 sec ( 89.380%)
 optimization log               ...        0 min,  0.002 sec (  0.833%)
 hessian update                 ...        0 min,  0.011 sec (  5.070%)
 rational function              ...        0 min,  0.003 sec (  1.225%)

================
 final structure:
================
14
 xtb: 6.7.1 (edcfbbe)
C            0.52825813468223       -1.85437209808970        0.19745772591567
C            0.91238366777951       -0.58664688886037       -0.54031770944897
C            1.71230580895173        0.46257193212859        0.24657320611748
O            0.69924887041658        1.45458908083471        0.04048310849513
C           -0.15518275451219        0.53255610670910       -0.64960753568432
C           -1.40208849443813        0.29121250170900        0.04246115899583
N           -2.38166150615258        0.10032983789477        0.60133895980320
H            1.41201878965197       -2.47104988525305        0.34732030914563
H           -0.20021883014150       -2.42188032347682       -0.37850342872799
H            0.09362614899367       -1.62392362018463        1.16831371669160
H            1.35164635271688       -0.82609214055384       -1.50997270584777
H            2.66687786724428        0.77111595995489       -0.18620213422853
H            1.84112255539902        0.23801590125126        1.30931781082492
H           -0.38307070989156        0.87527570033606       -1.66870636315190
 
 Bond Distances (Angstroems)
 ---------------------------
C1-C2=1.5162         C1-H8=1.0880         C1-H9=1.0883         C1-H10=1.0884        C2-C1=1.5162         C2-C3=1.5362         
C2-C5=1.5506         C2-H11=1.0911        C3-C2=1.5362         C3-O4=1.4328         C3-H12=1.0926        C3-H13=1.0938        
O4-C3=1.4328         O4-C5=1.4340         C5-C2=1.5506         C5-O4=1.4340         C5-C6=1.4464         C5-H14=1.0991        
C6-C5=1.4464         C6-N7=1.1438         N7-C6=1.1438         H8-C1=1.0880         H9-C1=1.0883         H10-C1=1.0884        
H11-C2=1.0911        H12-C3=1.0926        H13-C3=1.0938        H14-C5=1.0991        
 C  H  Rav=1.0916 sigma=0.0037  Rmin=1.0880  Rmax=1.0991     7
 C  C  Rav=1.5123 sigma=0.0400  Rmin=1.4464  Rmax=1.5506     4
 N  C  Rav=1.1438 sigma=0.0000  Rmin=1.1438  Rmax=1.1438     1
 O  C  Rav=1.4334 sigma=0.0006  Rmin=1.4328  Rmax=1.4340     2
 
 selected bond angles (degree)
 --------------------
H8-C1-C2=109.58                H9-C1-C2=110.37                H9-C1-H8=108.73                H10-C1-C2=110.99               
H10-C1-H8=108.75               H10-C1-H9=108.37               C3-C2-C1=116.98                C5-C2-C1=117.60                
C5-C2-C3= 84.35                H11-C2-C1=110.54               H11-C2-C3=113.30               H11-C2-C5=111.90               
O4-C3-C2= 91.78                H12-C3-C2=116.42               H12-C3-O4=111.42               H13-C3-C2=114.76               
H13-C3-O4=111.42               H13-C3-H12=109.87              C5-O4-C3= 92.60                O4-C5-C2= 91.14                
C6-C5-C2=116.06                C6-C5-O4=113.00                H14-C5-C2=115.67               H14-C5-O4=111.67               
H14-C5-C6=108.48               N7-C6-C5=179.33                
 
 selected dihedral angles (degree)
 ---------------------------------
C3-C2-C1-H8=287.93            C3-C2-C1-H9=168.22            C3-C2-C1-H10= 48.06           C5-C2-C1-H8=189.78            
C5-C2-C1-H9= 70.08            C5-C2-C1-H10=309.91           H11-C2-C1-H8= 59.59           H11-C2-C1-H9=299.89           
H11-C2-C1-H10=179.72          O4-C3-C2-C1=239.23            O4-C3-C2-C5=357.41            O4-C3-C2-H11=108.84           
H12-C3-C2-C1=124.18           H12-C3-C2-C5=242.35           H12-C3-C2-H11=353.79          H13-C3-C2-C1=353.85           
H13-C3-C2-C5=112.03           H13-C3-C2-H11=223.46          C5-O4-C3-C2=  2.79            C5-O4-C3-H12=122.16           
C5-O4-C3-H13=245.26           O4-C5-C2-C1=120.16            O4-C5-C2-C3=  2.59            O4-C5-C2-H11=249.73           
C6-C5-C2-C1=  3.75            C6-C5-C2-C3=246.18            C6-C5-C2-H11=133.32           H14-C5-C2-C1=234.95           
H14-C5-C2-C3=117.39           H14-C5-C2-H11=  4.52          C2-C5-O4-C3=357.23            C6-C5-O4-C3=116.30            
H14-C5-O4-C3=238.93           N7-C6-C5-C2= 63.71            N7-C6-C5-O4=320.31            N7-C6-C5-H14=195.93           
           -------------------------------------------------
          |                Final Singlepoint                |
           -------------------------------------------------

          ...................................................
          :                      SETUP                      :
          :.................................................:
          :  # basis functions                  35          :
          :  # atomic orbitals                  35          :
          :  # shells                           21          :
          :  # electrons                        38          :
          :  max. iterations                    40          :
          :  Hamiltonian                  GFN2-xTB          :
          :  restarted?                      false          :
          :  GBSA solvation                   true          :
          :  PC potential                    false          :
          :  electronic temp.          300.0000000     K    :
          :  accuracy                    1.0000000          :
          :  -> integral cutoff          0.2500000E+02      :
          :  -> integral neglect         0.1000000E-07      :
          :  -> SCF convergence          0.1000000E-05 Eh   :
          :  -> wf. convergence          0.1000000E-03 e    :
          :  Broyden damping             0.4000000          :
          :  net charge                          0          :
          :  unpaired electrons                  0          :
          ...................................................

 iter      E             dE          RMSdq      gap      omega  full diag
   1    -21.4979214 -0.214979E+02  0.659E-05    4.89       0.0  T
   2    -21.4979214 -0.470379E-11  0.387E-05    4.89     690.6  T
   3    -21.4979214  0.212808E-11  0.232E-05    4.89    1151.7  T

   *** convergence criteria satisfied after 3 iterations ***

         #    Occupation            Energy/Eh            Energy/eV
      -------------------------------------------------------------
         1        2.0000           -0.7258555             -19.7515
       ...           ...                  ...                  ...
        13        2.0000           -0.4944522             -13.4547
        14        2.0000           -0.4911710             -13.3654
        15        2.0000           -0.4788580             -13.0304
        16        2.0000           -0.4598920             -12.5143
        17        2.0000           -0.4527293             -12.3194
        18        2.0000           -0.4469546             -12.1623
        19        2.0000           -0.4155879             -11.3087 (HOMO)
        20                         -0.2360040              -6.4220 (LUMO)
        21                         -0.2245510              -6.1103
        22                         -0.0245944              -0.6692
        23                         -0.0109662              -0.2984
        24                          0.0618585               1.6833
       ...                                ...                  ...
        35                          1.1204484              30.4890
      -------------------------------------------------------------
                  HL-Gap            0.1795839 Eh            4.8867 eV
             Fermi-level           -0.3257960 Eh           -8.8654 eV

 SCC (total)                   0 d,  0 h,  0 min,  0.011 sec
 SCC setup                      ...        0 min,  0.003 sec ( 31.514%)
 Dispersion                     ...        0 min,  0.000 sec (  0.411%)
 classical contributions        ...        0 min,  0.000 sec (  3.320%)
 integral evaluation            ...        0 min,  0.001 sec (  5.514%)
 iterations                     ...        0 min,  0.001 sec ( 12.812%)
 molecular gradient             ...        0 min,  0.005 sec ( 44.949%)
 printout                       ...        0 min,  0.000 sec (  1.131%)

         :::::::::::::::::::::::::::::::::::::::::::::::::::::
         ::                     SUMMARY                     ::
         :::::::::::::::::::::::::::::::::::::::::::::::::::::
         :: total energy             -21.204052842223 Eh    ::
         :: total w/o Gsasa/hb       -21.195544987903 Eh    ::
         :: gradient norm              0.000157557972 Eh/a0 ::
         :: HOMO-LUMO gap              4.886726711182 eV    ::
         ::.................................................::
         :: SCC energy               -21.497902905730 Eh    ::
         :: -> isotropic ES            0.029494421606 Eh    ::
         :: -> anisotropic ES          0.003633887481 Eh    ::
         :: -> anisotropic XC          0.019325731705 Eh    ::
         :: -> dispersion             -0.008777596143 Eh    ::
         :: -> Gsolv                  -0.010475775777 Eh    ::
         ::    -> Gelec               -0.001967921457 Eh    ::
         ::    -> Gsasa               -0.010715997458 Eh    ::
         ::    -> Ghb                  0.000000000000 Eh    ::
         ::    -> Gshift               0.002208143139 Eh    ::
         :: repulsion energy           0.293850063507 Eh    ::
         :: add. restraining           0.000000000000 Eh    ::
         :: total charge              -0.000000000000 e     ::
         :::::::::::::::::::::::::::::::::::::::::::::::::::::

           -------------------------------------------------
          |                Property Printout                |
           -------------------------------------------------

    * Orbital Energies and Occupations

         #    Occupation            Energy/Eh            Energy/eV
      -------------------------------------------------------------
         1        2.0000           -0.7258555             -19.7515
       ...           ...                  ...                  ...
         7        2.0000           -0.5812796             -15.8174
         8        2.0000           -0.5725865             -15.5809
         9        2.0000           -0.5601742             -15.2431
        10        2.0000           -0.5279538             -14.3664
        11        2.0000           -0.5158429             -14.0368
        12        2.0000           -0.5092977             -13.8587
        13        2.0000           -0.4944522             -13.4547
        14        2.0000           -0.4911710             -13.3654
        15        2.0000           -0.4788580             -13.0304
        16        2.0000           -0.4598920             -12.5143
        17        2.0000           -0.4527293             -12.3194
        18        2.0000           -0.4469546             -12.1623
        19        2.0000           -0.4155879             -11.3087 (HOMO)
        20                         -0.2360040              -6.4220 (LUMO)
        21                         -0.2245510              -6.1103
        22                         -0.0245944              -0.6692
        23                         -0.0109662              -0.2984
        24                          0.0618585               1.6833
        25                          0.0655509               1.7837
        26                          0.0878614               2.3908
        27                          0.1147109               3.1214
        28                          0.1464608               3.9854
        29                          0.1689643               4.5978
        30                          0.1829893               4.9794
       ...                                ...                  ...
        35                          1.1204484              30.4890
      -------------------------------------------------------------
                  HL-Gap            0.1795839 Eh            4.8867 eV
             Fermi-level           -0.3257960 Eh           -8.8654 eV

     #   Z          covCN         q      C6AA      α(0)
     1   6 C        3.751    -0.112    22.707     6.796
     2   6 C        3.888    -0.016    20.813     6.486
     3   6 C        4.014     0.080    19.181     6.222
     4   8 O        1.735    -0.327    19.459     5.956
     5   6 C        4.067     0.122    18.526     6.114
     6   6 C        1.892     0.116    28.245     8.583
     7   7 N        0.911    -0.222    25.857     7.354
     8   1 H        0.925     0.058     2.227     2.334
     9   1 H        0.925     0.052     2.290     2.367
    10   1 H        0.925     0.052     2.300     2.372
    11   1 H        0.924     0.048     2.340     2.392
    12   1 H        0.924     0.044     2.392     2.418
    13   1 H        0.924     0.047     2.361     2.403
    14   1 H        0.923     0.058     2.217     2.329

 Mol. C6AA /au·bohr⁶  :       1879.727414
 Mol. C8AA /au·bohr⁸  :      42309.094641
 Mol. α(0) /au        :         64.125011


Wiberg/Mayer (AO) data.
largest (>0.10) Wiberg bond orders for each atom

 ---------------------------------------------------------------------------
     #   Z sym  total        # sym  WBO       # sym  WBO       # sym  WBO
 ---------------------------------------------------------------------------
     1   6 C    3.992 --     2 C    1.020    10 H    0.984     9 H    0.982
                             8 H    0.981
     2   6 C    3.984 --     1 C    1.020     3 C    0.991    11 H    0.972
                             5 C    0.945
     3   6 C    3.943 --     2 C    0.991    12 H    0.975    13 H    0.973
                             4 O    0.971
     4   8 O    2.035 --     3 C    0.971     5 C    0.959
     5   6 C    3.954 --     6 C    1.030     4 O    0.959     2 C    0.945
                            14 H    0.939
     6   6 C    3.942 --     7 N    2.858     5 C    1.030
     7   7 N    3.011 --     6 C    2.858
     8   1 H    0.997 --     1 C    0.981
     9   1 H    0.997 --     1 C    0.982
    10   1 H    0.997 --     1 C    0.984
    11   1 H    0.998 --     2 C    0.972
    12   1 H    0.998 --     3 C    0.975
    13   1 H    0.998 --     3 C    0.973
    14   1 H    0.997 --     5 C    0.939
 ---------------------------------------------------------------------------

Topologies differ in total number of bonds
Writing topology from bond orders to xtbtopo.mol

molecular dipole:
                 x           y           z       tot (Debye)
 q only:        0.953      -0.834      -0.514
   full:        1.347      -0.759      -0.795       4.419
molecular quadrupole (traceless):
                xx          xy          yy          xz          yz          zz
 q only:       -1.620      -1.610      -0.602       2.205      -0.774       2.222
  q+dip:       -3.608      -1.501      -1.557       2.343      -1.484       5.165
   full:       -4.431      -1.953      -0.178       3.841      -1.071       4.609

           -------------------------------------------------
          |                Geometry Summary                 |
           -------------------------------------------------

      molecular mass/u    :       97.1153729
   center of mass at/Å    :        0.0394319       0.0546508      -0.0031302
  moments of inertia/u·Å² :        0.1241895E+03   0.1976193E+03   0.2793721E+03
rotational constants/cm⁻¹ :        0.1357412E+00   0.8530356E-01   0.6034114E-01

 * 14 selected distances

     #   Z          #   Z                                           value/Å
     1   6 C        2   6 C                                       1.5162429
     2   6 C        3   6 C                                       1.5362074
     3   6 C        4   8 O                                       1.4327791
     2   6 C        5   6 C                                       1.5505670 (max)
     4   8 O        5   6 C                                       1.4340236
     5   6 C        6   6 C                                       1.4463679
     6   6 C        7   7 N                                       1.1438287
     1   6 C        8   1 H                                       1.0880181 (min)
     1   6 C        9   1 H                                       1.0883362
     1   6 C       10   1 H                                       1.0883809
     2   6 C       11   1 H                                       1.0911080
     3   6 C       12   1 H                                       1.0925667
     3   6 C       13   1 H                                       1.0938215
     5   6 C       14   1 H                                       1.0990688

 * 4 distinct bonds (by element types)

   Z      Z             #   av. dist./Å        max./Å        min./Å
   1 H    6 C           7     1.0916143     1.0990688     1.0880181
   6 C    6 C           4     1.5123463     1.5505670     1.4463679
   6 C    7 N           1     1.1438287     1.1438287     1.1438287
   6 C    8 O           2     1.4334013     1.4340236     1.4327791


optimized geometry written to: xtbopt.xyz


           -------------------------------------------------
          | TOTAL ENERGY              -21.204052842223 Eh   |
          | GRADIENT NORM               0.000157557972 Eh/α |
          | HOMO-LUMO GAP               4.886726711182 eV   |
           -------------------------------------------------

------------------------------------------------------------------------
 * finished run on 2024/08/07 at 21:32:09.057     
------------------------------------------------------------------------
 total:
 * wall-time:     0 d,  0 h,  0 min,  0.251 sec
 *  cpu-time:     0 d,  0 h,  0 min,  1.790 sec
 * ratio c/w:     7.139 speedup
 SCF:
 * wall-time:     0 d,  0 h,  0 min,  0.009 sec
 *  cpu-time:     0 d,  0 h,  0 min,  0.067 sec
 * ratio c/w:     7.677 speedup
 ANC optimizer:
 * wall-time:     0 d,  0 h,  0 min,  0.229 sec
 *  cpu-time:     0 d,  0 h,  0 min,  1.644 sec
 * ratio c/w:     7.188 speedup

