14
 energy: -21.204052842223 gnorm: 0.000157557972 xtb: 6.7.1 (edcfbbe)
C            0.52825813468223       -1.85437209808970        0.19745772591567
C            0.91238366777951       -0.58664688886037       -0.54031770944897
C            1.71230580895173        0.46257193212859        0.24657320611748
O            0.69924887041658        1.45458908083471        0.04048310849513
C           -0.15518275451219        0.53255610670910       -0.64960753568432
C           -1.40208849443813        0.29121250170900        0.04246115899583
N           -2.38166150615258        0.10032983789477        0.60133895980320
H            1.41201878965197       -2.47104988525305        0.34732030914563
H           -0.20021883014150       -2.42188032347682       -0.37850342872799
H            0.09362614899367       -1.62392362018463        1.16831371669160
H            1.35164635271688       -0.82609214055384       -1.50997270584777
H            2.66687786724428        0.77111595995489       -0.18620213422853
H            1.84112255539902        0.23801590125126        1.30931781082492
H           -0.38307070989156        0.87527570033606       -1.66870636315190
