14
 energy: -21.200023216350 gnorm: 0.056310221327 xtb: 6.7.1 (edcfbbe)
C            0.51922914130000       -1.82020709080000        0.28271522050000
C            0.88725315760000       -0.60182985570000       -0.55045363380000
C            1.79154975030000        0.43077628530000        0.17580156170000
O            0.65278521480000        1.27372749580000        0.42840860860000
C           -0.17293301090000        0.55850115400000       -0.54133007030000
C           -1.50159701620000        0.23645995020000       -0.12632187720000
N           -2.56158370880000       -0.06415507170000        0.22486400700000
H            1.37569041870000       -2.48036696320000        0.42367995690000
H           -0.27966573410000       -2.39376429900000       -0.18891710490000
H            0.16593762530000       -1.51543258820000        1.26810887740000
H            1.23934328310000       -0.85782731200000       -1.56103919250000
H            2.52293551450000        0.95376673110000       -0.45888421990000
H            2.22795280250000        0.07890914420000        1.12185746320000
H           -0.17163153740000        1.14314448440000       -1.47853347780000
14
 energy: -21.202195501974 gnorm: 0.020045802303 xtb: 6.7.1 (edcfbbe)
C            0.51868212250185       -1.80894288317857        0.27404054954023
C            0.89225155199986       -0.59727170329014       -0.55421790536255
C            1.77416706231161        0.42402803496854        0.19257227654992
O            0.65374234028439        1.29829013057711        0.40913801732365
C           -0.16043105628869        0.55374956499070       -0.53175848196363
C           -1.48715994408586        0.24638416155038       -0.08452506710607
N           -2.54509622892455       -0.06777374928323        0.21318856490543
H            1.38447596858135       -2.45765046628036        0.39868322206258
H           -0.27609772757878       -2.37613938109804       -0.20902980482850
H            0.16867819679096       -1.50274932891078        1.25969586384200
H            1.22942892358788       -0.87476191086734       -1.55693462012558
H            2.52356138670443        0.91147163981163       -0.43871674918478
H            2.21468738129511        0.09123827570474        1.13504033217836
H           -0.19562407647957        1.10182967970536       -1.48722007893106
14
 energy: -21.202521217594 gnorm: 0.014570254109 xtb: 6.7.1 (edcfbbe)
C            0.51802103029965       -1.80906764938855        0.26547538710113
C            0.89716859906455       -0.59208320099960       -0.55187263633292
C            1.76024443780633        0.42508164600458        0.20635952586221
O            0.64091416801781        1.30647423144469        0.38572804789657
C           -0.15097495986938        0.55023781913111       -0.54889878417401
C           -1.48533542672493        0.22677189605954       -0.11927918932462
N           -2.51864988258201       -0.03273261772887        0.28950457816646
H            1.38909086050729       -2.45001791733080        0.38534762280060
H           -0.26995107574856       -2.37358477528622       -0.22958052156068
H            0.16279107740309       -1.50837456964072        1.24988179312846
H            1.24185542889984       -0.87953273197273       -1.54336641749520
H            2.53054873928888        0.89742378284030       -0.40905691059123
H            2.18995524999242        0.10181501528387        1.15268515241169
H           -0.21041234565501        1.07929113598339       -1.51297152898847
14
 energy: -21.203004149891 gnorm: 0.008194242927 xtb: 6.7.1 (edcfbbe)
C            0.51706631213192       -1.81281674050028        0.26326929048279
C            0.89711696816051       -0.58852422873313       -0.54836937262921
C            1.76255192560810        0.42696690499778        0.20479594279073
O            0.64773778007672        1.31542845076258        0.36382297370852
C           -0.14835170328229        0.55242074435892       -0.55302944182838
C           -1.47806428625834        0.24008803815773       -0.08674722236661
N           -2.52244182451483       -0.03676499721261        0.28303111141187
H            1.38840668495264       -2.45317982756820        0.38206756764451
H           -0.26822701295955       -2.37632219309875       -0.23645766175002
H            0.15847114858815       -1.51949693396302        1.24801565786834
H            1.24933742772639       -0.87823623645769       -1.53580013640966
H            2.54616228884604        0.89319967326784       -0.40140278279222
H            2.17827329434533        0.10774569033244        1.15951226968853
H           -0.23277310272082        1.07119372005639       -1.52275207691919
14
 energy: -21.203208620457 gnorm: 0.007986174257 xtb: 6.7.1 (edcfbbe)
C            0.51683730555758       -1.81675426391928        0.25768111223666
C            0.90000735679318       -0.58697168054170       -0.54910735277250
C            1.76204282910522        0.43115510737507        0.20751987983301
O            0.65340066261578        1.33323728808061        0.33335875337285
C           -0.14752254512634        0.55158075106636       -0.56077078972179
C           -1.47208786208039        0.24418652116984       -0.06718068066579
N           -2.51915532508885       -0.02963988925880        0.30799816300443
H            1.38708673459947       -2.45803724791630        0.37929072226299
H           -0.26498859568829       -2.37844265709308       -0.24964117422461
H            0.15099123402196       -1.53166144378587        1.24232294416617
H            1.26489416120930       -0.87444378047408       -1.53496953217143
H            2.56460739616494        0.88463252133586       -0.38736776995122
H            2.15159853310232        0.11844310407152        1.17885839900171
H           -0.25244598448591        1.05441773428984       -1.53803655547049
14
 energy: -21.203407656453 gnorm: 0.010029828616 xtb: 6.7.1 (edcfbbe)
C            0.51716958070103       -1.82324776906747        0.24863197883008
C            0.90340210483860       -0.58531099100491       -0.54737442794455
C            1.75955520020434        0.43786867081962        0.21290504931380
O            0.66086360421762        1.36038362189239        0.28663772128256
C           -0.14756291023064        0.54996594288699       -0.57377086603296
C           -1.46276871281391        0.24695998363966       -0.04493721417235
N           -2.50571288207757       -0.01491389146992        0.35080403565116
H            1.38677662265734       -2.46486536010701        0.37388815271437
H           -0.25942242291366       -2.38190777732392       -0.27053545268977
H            0.14082697955903       -1.54820361529277        1.23241798520641
H            1.28338178163687       -0.86615097528175       -1.53149315277130
H            2.59082888828998        0.86873064588527       -0.36255392405783
H            2.10846354438321        0.13519656554747        1.20679472574783
H           -0.28053547775230        1.02719701327634       -1.56145849217743
14
 energy: -21.203597849779 gnorm: 0.010130808574 xtb: 6.7.1 (edcfbbe)
C            0.51870827326601       -1.83006820940815        0.23816812637556
C            0.90669469760948       -0.58505704544360       -0.54462332396114
C            1.75476046816368        0.44455768463231        0.21954693264983
O            0.66910356194523        1.38779665995890        0.23507396932525
C           -0.14892508823387        0.54671836244498       -0.58833048883052
C           -1.45172786249901        0.24983240611512       -0.02438512899650
N           -2.48782153011735        0.00611770518323        0.40003181309668
H            1.38871154729414       -2.47047311288809        0.36732726581827
H           -0.25126857417424       -2.38638574032245       -0.29370382368741
H            0.13094649057322       -1.56465015452568        1.22046746681590
H            1.30001180399740       -0.85511286519390       -1.52763641815250
H            2.61490709757679        0.84893290674969       -0.33127379739330
H            2.05852069790831        0.15521867275360        1.23440839030553
H           -0.30735568260984        0.99427479434403       -1.58511486446565
14
 energy: -21.203788189355 gnorm: 0.005291966172 xtb: 6.7.1 (edcfbbe)
C            0.52134959915494       -1.83521312688645        0.22959466957143
C            0.90831846214641       -0.58609765398059       -0.54207672007193
C            1.74841894543467        0.44905888312425        0.22486608839105
O            0.67622710421177        1.40502518577524        0.19437520294212
C           -0.15138566578004        0.54342798231564       -0.59954471643688
C           -1.44169435298133        0.25419667671167       -0.00987364678543
N           -2.47022377242632        0.02746858749959        0.43780814468112
H            1.39297876039010       -2.47271442567199        0.36219878953698
H           -0.24208373038139       -2.39174964330643       -0.31117980560126
H            0.12471795245818       -1.57653000946101        1.21019486237126
H            1.30967022970054       -0.84514907778792       -1.52455958259538
H            2.62858668170647        0.83111933800230       -0.30256685852869
H            2.01580539798690        0.17257016129493        1.25142974734930
H           -0.32541971092097        0.96628918677077       -1.60071005592372
14
 energy: -21.203901008920 gnorm: 0.008234998330 xtb: 6.7.1 (edcfbbe)
C            0.52516512856084       -1.83979631434088        0.21902113554378
C            0.91056844303360       -0.58602997756963       -0.54122629653934
C            1.73751072256146        0.45265434260825        0.23304492952448
O            0.68013417434563        1.42159703506628        0.14953887515876
C           -0.15348796870263        0.53939780770523       -0.61451438333621
C           -1.43147041076696        0.26141235977681        0.00413730463536
N           -2.44980550720123        0.05584805259251        0.48775931340540
H            1.40099839148956       -2.47082079405464        0.35457165574854
H           -0.22861252798281       -2.39981866315183       -0.33158359736491
H            0.11871879299514       -1.58937042466544        1.19769350384950
H            1.32176738961835       -0.83878270346410       -1.51987029104318
H            2.64323329867421        0.80882147609884       -0.26771988444212
H            1.96502273217295        0.19102710857474        1.27169887313458
H           -0.34447675809819        0.93556275922385       -1.62259501937466
14
 energy: -21.203970564349 gnorm: 0.007191344610 xtb: 6.7.1 (edcfbbe)
C            0.52825237269810       -1.84421580943278        0.21127319748302
C            0.91042156817796       -0.58613692883451       -0.54069585654811
C            1.72780688967160        0.45522875561761        0.23762901087539
O            0.68761732847822        1.43306400291601        0.11295615148184
C           -0.15569223401429        0.53758805854735       -0.62409027907829
C           -1.42139213568294        0.27320928359652        0.02111626220798
N           -2.43011566574350        0.07551757295363        0.51838436481489
H            1.40846847053066       -2.46873749916095        0.34942297010919
H           -0.21682071863207       -2.40921088976322       -0.34566887354864
H            0.11452413906677       -1.60132270441124        1.18850064602048
H            1.32831722275997       -0.83360824121161       -1.51658260825394
H            2.65168252367349        0.79089473195836       -0.23926604451421
H            1.92113781841398        0.20711128322818        1.28372697460572
H           -0.35894167869804        0.91232044839665       -1.63674979675532
14
 energy: -21.204011706778 gnorm: 0.005890584891 xtb: 6.7.1 (edcfbbe)
C            0.53089535961721       -1.85161031373881        0.20130555777400
C            0.91258593262136       -0.58689754777383       -0.54085960692473
C            1.71751762700478        0.45977819355446        0.24360200340690
O            0.69299989359474        1.44889488765683        0.06561452856677
C           -0.15700487848377        0.53302504538317       -0.64090619642243
C           -1.41066058450976        0.28329050711369        0.03641101248241
N           -2.40673345825602        0.10330340270981        0.57183121361076
H            1.41465829101185       -2.47009892344779        0.34527087608581
H           -0.20388381543291       -2.42006589700957       -0.36647334577055
H            0.10511504128234       -1.61803082705140        1.17593470768281
H            1.34462116656204       -0.82825481646181       -1.51283633726854
H            2.66423763162179        0.77586243399099       -0.20441649426464
H            1.86772937652356        0.22721331142123        1.30427032477090
H           -0.37681168245732        0.88529260805302       -1.65879212482951
14
 energy: -21.204014875991 gnorm: 0.007666998889 xtb: 6.7.1 (edcfbbe)
C            0.53015477205482       -1.85172420402246        0.20347329499697
C            0.91228767327101       -0.58776544825676       -0.54180124832680
C            1.71766567937628        0.45913430953221        0.24209146569661
O            0.69085306443954        1.44106865963106        0.07379376537286
C           -0.15604221634635        0.53227799716122       -0.64050466527843
C           -1.41202346412148        0.28326363388381        0.02949410971036
N           -2.40607372882101        0.10168625371109        0.56935594283666
H            1.41341909335512       -2.47032748587617        0.34927456416857
H           -0.20489821934375       -2.42015147627212       -0.36345114869582
H            0.10426059397541       -1.61597350884231        1.17714305692421
H            1.34424054527281       -0.83071762479497       -1.51373353780832
H            2.65646104878543        0.78418145097551       -0.20780517701799
H            1.87527103273663        0.22413408644322        1.29740795803665
H           -0.37030997393456        0.89261542112665       -1.65478226171554
14
 energy: -21.204039874256 gnorm: 0.001881518938 xtb: 6.7.1 (edcfbbe)
C            0.52959701504545       -1.85207441018343        0.20272601670514
C            0.91185463160289       -0.58658618539384       -0.54081881958484
C            1.71748653555376        0.46002977551145        0.24319756865596
O            0.69419956649594        1.44677394981448        0.06578479456137
C           -0.15557408761332        0.53319289956565       -0.64089890306183
C           -1.40961343886404        0.28506017203819        0.03532074308999
N           -2.40210822369072        0.09787282435873        0.57115502007876
H            1.41266829315861       -2.47082535337259        0.34808063815954
H           -0.20476363307035       -2.41911166982310       -0.36625866076455
H            0.10272854846684       -1.61783958540649        1.17615529701907
H            1.34424771783446       -0.82916681808774       -1.51271516165812
H            2.66121844843814        0.78007260814320       -0.20412650426810
H            1.86910597792481        0.22565704161044        1.30010814949964
H           -0.37578145058255        0.88864681562503       -1.65775405953205
14
 energy: -21.204044479122 gnorm: 0.002913886928 xtb: 6.7.1 (edcfbbe)
C            0.53013076984689       -1.85530229022171        0.19706574352901
C            0.91277040529164       -0.58677709366979       -0.54082635117661
C            1.71174613688245        0.46252934152249        0.24690036005235
O            0.69843629955060        1.45554305284699        0.03828446399264
C           -0.15598834533959        0.53102894583409       -0.65001221638675
C           -1.40260908457866        0.29096924013567        0.04414276112582
N           -2.38536998493738        0.10841449401569        0.60153164553945
H            1.41483854395558       -2.47090323329340        0.34592726863026
H           -0.19822355562523       -2.42355792160715       -0.37850034163305
H            0.09614837685522       -1.62551848221609        1.16843491878737
H            1.35221678185890       -0.82613420535322       -1.51056367298131
H            2.66847712630475        0.77030538833413       -0.18444376614654
H            1.83806189221234        0.23762166435908        1.31148158660640
H           -0.38536946157760        0.87348316371321       -1.66946628103908
14
 energy: -21.204050812240 gnorm: 0.001083154087 xtb: 6.7.1 (edcfbbe)
C            0.52940434429249       -1.85463224092140        0.19800196965022
C            0.91254847262285       -0.58681543036089       -0.54075520600966
C            1.71262849133052        0.46221126956894        0.24628545878737
O            0.69814227336399        1.45357204809060        0.04272708486828
C           -0.15560841383975        0.53155449111273       -0.64863057621060
C           -1.40334070163932        0.29034343867720        0.04214480502675
N           -2.38601069197788        0.10449182349287        0.59769193835887
H            1.41360518134364       -2.47087585021377        0.34686666043046
H           -0.19962649388099       -2.42245952183199       -0.37695076989531
H            0.09597743156225       -1.62384342911044        1.16929989693014
H            1.35096686091780       -0.82681848097008       -1.51073184389037
H            2.66649765414589        0.77232710190053       -0.18775442305238
H            1.84299123338816        0.23627075420182        1.30913348102884
H           -0.38290974092975        0.87637609076389       -1.66737235712263
14
 energy: -21.204052389902 gnorm: 0.000769343614 xtb: 6.7.1 (edcfbbe)
C            0.52845659708255       -1.85448245496945        0.19786232353530
C            0.91231880911885       -0.58670945671051       -0.54025706307033
C            1.71245279725407        0.46248503914642        0.24641608040529
O            0.69894986753609        1.45380781982216        0.04184890710792
C           -0.15518385229412        0.53237162692072       -0.64902088807108
C           -1.40248570226846        0.29105327607669        0.04201244654517
N           -2.38271276717988        0.10094833609987        0.59958884563130
H            1.41223403547684       -2.47108597960912        0.34759242257470
H           -0.20008729227783       -2.42195105107247       -0.37796592361844
H            0.09396525200133       -1.62382573588868        1.16870503505220
H            1.35122077647165       -0.82643770218391       -1.51000407925387
H            2.66605646056892        0.77215294350743       -0.18717297129345
H            1.84261336253566        0.23725229981574        1.30834874686156
H           -0.38253244332576        0.87612310344510       -1.66799776350629
14
 energy: -21.204052777648 gnorm: 0.000360680769 xtb: 6.7.1 (edcfbbe)
C            0.52843060986557       -1.85441743283755        0.19756666637003
C            0.91234400781014       -0.58674139165531       -0.54040010098991
C            1.71234579341570        0.46245401681345        0.24649655989847
O            0.69915527424776        1.45416126971193        0.04079135371233
C           -0.15526321354743        0.53241423289789       -0.64948152090574
C           -1.40222469018893        0.29118863188080        0.04234842398164
N           -2.38200288304778        0.10074274785198        0.60075040445319
H            1.41219466153651       -2.47105918972366        0.34739611442201
H           -0.20007532707729       -2.42192947506587       -0.37823123416704
H            0.09390854508159       -1.62386895216297        1.16840692857251
H            1.35141514888923       -0.82621621154621       -1.51012555850967
H            2.66664205524319        0.77131884258451       -0.18653033933582
H            1.84127286547967        0.23794168058395        1.30925119755795
H           -0.38287694700801        0.87571329506703       -1.66828277615997
14
 energy: -21.204052842142 gnorm: 0.000156712514 xtb: 6.7.1 (edcfbbe)
C            0.52825813468223       -1.85437209808970        0.19745772591567
C            0.91238366777951       -0.58664688886037       -0.54031770944897
C            1.71230580895173        0.46257193212859        0.24657320611748
O            0.69924887041658        1.45458908083471        0.04048310849513
C           -0.15518275451219        0.53255610670910       -0.64960753568432
C           -1.40208849443813        0.29121250170900        0.04246115899583
N           -2.38166150615258        0.10032983789477        0.60133895980320
H            1.41201878965197       -2.47104988525305        0.34732030914563
H           -0.20021883014150       -2.42188032347682       -0.37850342872799
H            0.09362614899367       -1.62392362018463        1.16831371669160
H            1.35164635271688       -0.82609214055384       -1.50997270584777
H            2.66687786724428        0.77111595995489       -0.18620213422853
H            1.84112255539902        0.23801590125126        1.30931781082492
H           -0.38307070989156        0.87527570033606       -1.66870636315190
