      -----------------------------------------------------------      
     |                   =====================                   |     
     |                           x T B                           |     
     |                   =====================                   |     
     |                         S. Grimme                         |     
     |          Mulliken Center for Theoretical Chemistry        |     
     |                    University of Bonn                     |     
      -----------------------------------------------------------      

   * xtb version 6.7.0 (08769fc) compiled by 'albert@albert-system' on 2024-03-04

   xtb is free software: you can redistribute it and/or modify it under
   the terms of the GNU Lesser General Public License as published by
   the Free Software Foundation, either version 3 of the License, or
   (at your option) any later version.
   
   xtb is distributed in the hope that it will be useful,
   but WITHOUT ANY WARRANTY; without even the implied warranty of
   MERCHANTABILITY or FITNESS FOR A PARTICULAR PURPOSE.  See the
   GNU Lesser General Public License for more details.
   
   Cite this work as:
   * C. Bannwarth, E. Caldeweyher, S. Ehlert, A. Hansen, P. Pracht,
     J. Seibert, S. Spicher, S. Grimme, WIREs Comput. Mol. Sci., 2020, 11,
     e01493. DOI: 10.1002/wcms.1493
   
   for GFN2-xTB:
   * C. Bannwarth, S. Ehlert and S. Grimme., J. Chem. Theory Comput., 2019,
     15, 1652-1671. DOI: 10.1021/acs.jctc.8b01176
   for GFN1-xTB:
   * S. Grimme, C. Bannwarth, P. Shushkov, J. Chem. Theory Comput., 2017,
     13, 1989-2009. DOI: 10.1021/acs.jctc.7b00118
   for GFN0-xTB:
   * P. Pracht, E. Caldeweyher, S. Ehlert, S. Grimme, ChemRxiv, 2019, preprint.
     DOI: 10.26434/chemrxiv.8326202.v1
   for GFN-FF:
   * S. Spicher and S. Grimme, Angew. Chem. Int. Ed., 2020, 59, 15665-15673.
     DOI: 10.1002/anie.202004239
   
   for ALPB and GBSA implicit solvation:
   * S. Ehlert, M. Stahn, S. Spicher, S. Grimme, J. Chem. Theory Comput.,
     2021, 17, 4250-4261. DOI: 10.1021/acs.jctc.1c00471
   
   for ddCOSMO and CPCM-X implicit solvation:
   * M. Stahn, S. Ehlert, S. Grimme, J. Phys. Chem. A,
     2023, XX, XXXX-XXXX. DOI: 10.1021/acs.jpca.3c04382
   
   for DFT-D4:
   * E. Caldeweyher, C. Bannwarth and S. Grimme, J. Chem. Phys., 2017,
     147, 034112. DOI: 10.1063/1.4993215
   * E. Caldeweyher, S. Ehlert, A. Hansen, H. Neugebauer, S. Spicher,
     C. Bannwarth and S. Grimme, J. Chem. Phys., 2019, 150, 154122.
     DOI: 10.1063/1.5090222
   * E. Caldeweyher, J.-M. Mewes, S. Ehlert and S. Grimme, Phys. Chem. Chem. Phys.
     2020, 22, 8499-8512. DOI: 10.1039/D0CP00502A
   
   for sTDA-xTB:
   * S. Grimme and C. Bannwarth, J. Chem. Phys., 2016, 145, 054103.
     DOI: 10.1063/1.4959605
   
   in the mass-spec context:
   * V. Asgeirsson, C. Bauer and S. Grimme, Chem. Sci., 2017, 8, 4879.
     DOI: 10.1039/c7sc00601b
   * J. Koopman and S. Grimme, ACS Omega 2019, 4, 12, 15120-15133.
     DOI: 10.1021/acsomega.9b02011
   
   for metadynamics refer to:
   * S. Grimme, J. Chem. Theory Comput., 2019, 155, 2847-2862
     DOI: 10.1021/acs.jctc.9b00143
   
   for SPH calculations refer to:
   * S. Spicher and S. Grimme, J. Chem. Theory Comput., 2021, 17, 1701-1714
     DOI: 10.1021/acs.jctc.0c01306
   
   for ONIOM refer to:
   * C. Plett, A. Katbashev, S. Ehlert, S. Grimme, M. Bursch,
     Phys. Chem. Chem. Phys., 2023, 25, 17860-17868. DOI: 10.1039/D3CP02178E
   
   for DIPRO refer to:
   * J. Kohn, N. Gildemeister, S. Grimme, D. Fazzi, A. Hansen,
     J. Chem. Phys., 2023, just accepted.
   
   for PTB refer to:
   * S. Grimme, M. Mueller, A. Hansen, J. Chem. Phys., 2023, 158, 124111.
     DOI: 10.1063/5.0137838
   
   with help from (in alphabetical order)
   P. Atkinson, C. Bannwarth, F. Bohle, G. Brandenburg, E. Caldeweyher
   M. Checinski, S. Dohm, S. Ehlert, S. Ehrlich, I. Gerasimov, C. Hölzer
   A. Katbashev, J. Kohn, J. Koopman, C. Lavigne, S. Lehtola, F. März, M. Müller,
   F. Musil, H. Neugebauer, J. Pisarek, C. Plett, P. Pracht, F. Pultar,
   J. Seibert, P. Shushkov, S. Spicher, M. Stahn, M. Steiner, T. Strunk,
   J. Stückrath, T. Rose, and J. Unsleber
   
 * started run on 2024/08/07 at 19:43:49.706     
   ID    Z sym.   atoms
    1    7 N      1, 3, 5
    2    6 C      2, 4, 6
    3    8 O      7
    4    1 H      8-12

           -------------------------------------------------
          |                Calculation Setup                |
           -------------------------------------------------

          program call               : /home/mvotokps/xtb-dist/bin/xtb crest_best.xyz --gfn 2 --alpb toluene --opt vtight -c 0 --iterations 4000
          coordinate file            : crest_best.xyz
          omp threads                :                     8


           -------------------------------------------------
          |                 G F N 2 - x T B                 |
           -------------------------------------------------

        Reference                      10.1021/acs.jctc.8b01176
      * Hamiltonian:
        H0-scaling (s, p, d)           1.850000    2.230000    2.230000
        zeta-weighting                 0.500000
      * Dispersion:
        s8                             2.700000
        a1                             0.520000
        a2                             5.000000
        s9                             5.000000
      * Repulsion:
        kExp                           1.500000    1.000000
        rExp                           1.000000
      * Coulomb:
        alpha                          2.000000
        third order                    shell-resolved
        anisotropic                    true
        a3                             3.000000
        a5                             4.000000
        cn-shift                       1.200000
        cn-exp                         4.000000
        max-rad                        5.000000

      * Solvation model:               ALPB
        Solvent                        toluene
        Parameter file                 internal GFN2-xTB/ALPB
        Dielectric constant                7.0000E+00
        Reference state                gsolv [1 M gas/solution]
        Free energy shift                  2.2081E-03 Eh       1.3856E+00 kcal/mol
        Temperature                        2.9815E+02 K
        Density                            8.6700E-01 kg/L
        Solvent mass                       7.8110E+01 g/mol
        Interaction kernel             P16
        Born radius scaling (c1)           1.7172E+00
        Born radii integrator          GBOBC
        Born offset                        0.0000E+00 a0       0.0000E+00 AA
        H-bond correction              false
        Ion screening                  false
        Surface tension                    1.0000E-05 Eh       1.5569E+01 dyn/cm
        Grid points                               230 per atom

          ...................................................
          :                      SETUP                      :
          :.................................................:
          :  # basis functions                  33          :
          :  # atomic orbitals                  33          :
          :  # shells                           19          :
          :  # electrons                        38          :
          :  max. iterations                  4000          :
          :  Hamiltonian                  GFN2-xTB          :
          :  restarted?                      false          :
          :  GBSA solvation                   true          :
          :  PC potential                    false          :
          :  electronic temp.          300.0000000     K    :
          :  accuracy                    1.0000000          :
          :  -> integral cutoff          0.2500000E+02      :
          :  -> integral neglect         0.1000000E-07      :
          :  -> SCF convergence          0.1000000E-05 Eh   :
          :  -> wf. convergence          0.1000000E-03 e    :
          :  Broyden damping             0.4000000          :
          :  net charge                          0          :
          :  unpaired electrons                  0          :
          ...................................................

 iter      E             dE          RMSdq      gap      omega  full diag
   1    -21.9750592 -0.219751E+02  0.545E+00    1.97       0.0  T
   2    -22.0091914 -0.341322E-01  0.316E+00    1.45       1.0  T
   3    -22.0086965  0.494949E-03  0.162E+00    1.36       1.0  T
   4    -22.0135167 -0.482023E-02  0.430E-01    1.19       1.0  T
   5    -22.0146896 -0.117293E-02  0.106E-01    1.16       1.0  T
   6    -22.0147034 -0.137298E-04  0.544E-02    1.15       1.0  T
   7    -22.0147128 -0.945497E-05  0.182E-02    1.15       1.6  T
   8    -22.0147132 -0.394371E-06  0.756E-03    1.15       3.8  T
   9    -22.0147133 -0.128831E-06  0.317E-03    1.15       9.1  T
  10    -22.0147134 -0.200321E-07  0.150E-03    1.15      19.3  T
  11    -22.0147134 -0.470129E-08  0.513E-04    1.15      56.3  T
  12    -22.0147134 -0.620194E-09  0.144E-04    1.15     200.8  T

   *** convergence criteria satisfied after 12 iterations ***

         #    Occupation            Energy/Eh            Energy/eV
      -------------------------------------------------------------
         1        2.0000           -0.7506724             -20.4268
       ...           ...                  ...                  ...
        13        2.0000           -0.5222555             -14.2113
        14        2.0000           -0.5108805             -13.9018
        15        2.0000           -0.4819089             -13.1134
        16        2.0000           -0.4356592             -11.8549
        17        2.0000           -0.4138303             -11.2609
        18        2.0000           -0.4065377             -11.0625
        19        2.0000           -0.3719225             -10.1205 (HOMO)
        20                         -0.3296816              -8.9711 (LUMO)
        21                         -0.2345069              -6.3813
        22                         -0.1772875              -4.8242
        23                         -0.0146073              -0.3975
        24                          0.0812756               2.2116
       ...                                ...                  ...
        33                          0.6450077              17.5516
      -------------------------------------------------------------
                  HL-Gap            0.0422409 Eh            1.1494 eV
             Fermi-level           -0.3508020 Eh           -9.5458 eV

 SCC (total)                   0 d,  0 h,  0 min,  0.114 sec
 SCC setup                      ...        0 min,  0.000 sec (  0.289%)
 Dispersion                     ...        0 min,  0.000 sec (  0.082%)
 classical contributions        ...        0 min,  0.000 sec (  0.011%)
 integral evaluation            ...        0 min,  0.001 sec (  0.501%)
 iterations                     ...        0 min,  0.112 sec ( 97.892%)
 molecular gradient             ...        0 min,  0.001 sec (  1.088%)
 printout                       ...        0 min,  0.000 sec (  0.103%)

         :::::::::::::::::::::::::::::::::::::::::::::::::::::
         ::                     SUMMARY                     ::
         :::::::::::::::::::::::::::::::::::::::::::::::::::::
         :: total energy             -21.735658101478 Eh    ::
         :: total w/o Gsasa/hb       -21.726996582834 Eh    ::
         :: gradient norm              0.093952503008 Eh/a0 ::
         :: HOMO-LUMO gap              1.149432190044 eV    ::
         ::.................................................::
         :: SCC energy               -22.014705949530 Eh    ::
         :: -> isotropic ES            0.050881279705 Eh    ::
         :: -> anisotropic ES         -0.000116505906 Eh    ::
         :: -> anisotropic XC          0.019393922075 Eh    ::
         :: -> dispersion             -0.007404870692 Eh    ::
         :: -> Gsolv                  -0.011087256031 Eh    ::
         ::    -> Gelec               -0.002425737388 Eh    ::
         ::    -> Gsasa               -0.010869661782 Eh    ::
         ::    -> Ghb                  0.000000000000 Eh    ::
         ::    -> Gshift               0.002208143139 Eh    ::
         :: repulsion energy           0.279047848052 Eh    ::
         :: add. restraining           0.000000000000 Eh    ::
         :: total charge              -0.000000000000 e     ::
         :::::::::::::::::::::::::::::::::::::::::::::::::::::

      ----------------------------------------------------------- 
     |                   =====================                   |
     |                        A N C O P T                        |
     |                   =====================                   |
     |               Approximate Normal Coordinate               |
     |                Rational Function Optimizer                |
      ----------------------------------------------------------- 
      ----------------------------------------------------------- 
     |                   =====================                   |
     |                        A N C O P T                        |
     |                   =====================                   |
     |               Approximate Normal Coordinate               |
     |                Rational Function Optimizer                |
      ----------------------------------------------------------- 

          ...................................................
          :                      SETUP                      :
          :.................................................:
          :   optimization level         verytight          :
          :   max. optcycles                   240          :
          :   ANC micro-cycles                  20          :
          :   degrees of freedom                30          :
          :.................................................:
          :   RF solver                   davidson          :
          :   write xtbopt.log                true          :
          :   linear?                        false          :
          :   energy convergence         0.1000000E-06 Eh   :
          :   grad. convergence          0.2000000E-03 Eh/α :
          :   maxmium RF displ.          1.0000000          :
          :   Hlow (freq-cutoff)         0.1000000E-01      :
          :   Hmax (freq-cutoff)         5.0000000          :
          :   S6 in model hess.         20.0000000          :
          ...................................................

generating ANC from model Hessian ...
Using Lindh-Hessian (1995)
 Shifting diagonal of input Hessian by   2.816671891170351E-003
 Lowest  eigenvalues of input Hessian
    0.000000    0.000000    0.000000    0.000000    0.000000    0.000000
    0.010000    0.010991    0.018904    0.021128    0.036262    0.047310
    0.047695    0.062882    0.096467    0.097474    0.111017    0.120748
 Highest eigenvalues
    1.349854    1.744967    1.905728    2.034218    2.269964    2.368867
 

........................................................................
.............................. CYCLE    1 ..............................
........................................................................

 iter      E             dE          RMSdq      gap      omega  full diag
   1    -22.0147134 -0.220147E+02  0.304E-05    1.15       0.0  T
   2    -22.0147134 -0.540012E-12  0.180E-05    1.15    1605.4  T
   3    -22.0147134  0.994760E-13  0.811E-06    1.15    3560.1  T
     SCC iter.                  ...        0 min,  0.099 sec
     gradient                   ...        0 min,  0.001 sec
 * total energy  :   -21.7356581 Eh     change       -0.1392664E-09 Eh
   gradient norm :     0.0939522 Eh/α   predicted     0.0000000E+00 (-100.00%)
   displ. norm   :     0.3569645 α      lambda       -0.1192301E-01
   maximum displ.:     0.3077146 α      in ANC's #3, #7, #10, ...

........................................................................
.............................. CYCLE    2 ..............................
........................................................................

 iter      E             dE          RMSdq      gap      omega  full diag
   1    -22.0133666 -0.220134E+02  0.297E-01    1.37       0.0  T
   2    -22.0134002 -0.336667E-04  0.173E-01    1.42       1.0  T
   3    -22.0133999  0.290461E-06  0.316E-02    1.43       1.0  T
   4    -22.0134041 -0.412391E-05  0.100E-02    1.43       2.9  T
   5    -22.0134045 -0.381757E-06  0.387E-03    1.43       7.5  T
   6    -22.0134045 -0.211017E-07  0.198E-03    1.43      14.6  T
   7    -22.0134045 -0.531918E-08  0.493E-04    1.43      58.6  T
   8    -22.0134045 -0.958664E-09  0.293E-04    1.43      98.6  T
     SCC iter.                  ...        0 min,  0.109 sec
     gradient                   ...        0 min,  0.001 sec
 * total energy  :   -21.7442853 Eh     change       -0.8627165E-02 Eh
   gradient norm :     0.0476608 Eh/α   predicted    -0.6721151E-02 ( -22.09%)
   displ. norm   :     0.2806779 α      lambda       -0.5477862E-02
   maximum displ.:     0.2105072 α      in ANC's #3, #10, #7, ...

........................................................................
.............................. CYCLE    3 ..............................
........................................................................

 iter      E             dE          RMSdq      gap      omega  full diag
   1    -22.0120692 -0.220121E+02  0.314E-01    1.68       0.0  T
   2    -22.0121227 -0.535260E-04  0.182E-01    1.72       1.0  T
   3    -22.0121159  0.681126E-05  0.634E-02    1.72       1.0  T
   4    -22.0121310 -0.150607E-04  0.130E-02    1.73       2.2  T
   5    -22.0121318 -0.882371E-06  0.505E-03    1.73       5.7  T
   6    -22.0121319 -0.333683E-07  0.203E-03    1.73      14.2  T
   7    -22.0121319 -0.616178E-08  0.826E-04    1.73      34.9  T
   8    -22.0121319 -0.258630E-08  0.254E-04    1.73     113.6  T
     SCC iter.                  ...        0 min,  0.103 sec
     gradient                   ...        0 min,  0.001 sec
 * total energy  :   -21.7474681 Eh     change       -0.3182813E-02 Eh
   gradient norm :     0.0197871 Eh/α   predicted    -0.2954705E-02 (  -7.17%)
   displ. norm   :     0.0998314 α      lambda       -0.5242021E-03
   maximum displ.:     0.0865787 α      in ANC's #3, #10, #7, ...

........................................................................
.............................. CYCLE    4 ..............................
........................................................................

 iter      E             dE          RMSdq      gap      omega  full diag
   1    -22.0136083 -0.220136E+02  0.862E-02    1.81       0.0  T
   2    -22.0136203 -0.120723E-04  0.481E-02    1.83       1.0  T
   3    -22.0136209 -0.544835E-06  0.243E-02    1.83       1.2  T
   4    -22.0136216 -0.755702E-06  0.548E-03    1.83       5.3  T
   5    -22.0136218 -0.193459E-06  0.160E-03    1.83      18.0  T
   6    -22.0136218 -0.159195E-08  0.757E-04    1.83      38.1  T
   7    -22.0136218 -0.475669E-09  0.255E-04    1.83     113.0  T
     SCC iter.                  ...        0 min,  0.109 sec
     gradient                   ...        0 min,  0.003 sec
 * total energy  :   -21.7478168 Eh     change       -0.3486767E-03 Eh
   gradient norm :     0.0103527 Eh/α   predicted    -0.2647150E-03 ( -24.08%)
   displ. norm   :     0.0802831 α      lambda       -0.2156192E-03
   maximum displ.:     0.0714751 α      in ANC's #3, #10, #4, ...

........................................................................
.............................. CYCLE    5 ..............................
........................................................................

 iter      E             dE          RMSdq      gap      omega  full diag
   1    -22.0153977 -0.220154E+02  0.618E-02    1.87       0.0  T
   2    -22.0154048 -0.706433E-05  0.353E-02    1.88       1.0  T
   3    -22.0154051 -0.323224E-06  0.186E-02    1.88       1.6  T
   4    -22.0154055 -0.339406E-06  0.483E-03    1.88       6.0  T
   5    -22.0154056 -0.136768E-06  0.133E-03    1.88      21.7  T
   6    -22.0154056 -0.140186E-08  0.629E-04    1.88      45.9  T
   7    -22.0154056 -0.547324E-09  0.200E-04    1.88     144.5  T
     SCC iter.                  ...        0 min,  0.162 sec
     gradient                   ...        0 min,  0.002 sec
 * total energy  :   -21.7479305 Eh     change       -0.1137590E-03 Eh
   gradient norm :     0.0048726 Eh/α   predicted    -0.1085064E-03 (  -4.62%)
   displ. norm   :     0.0454130 α      lambda       -0.7068727E-04
   maximum displ.:     0.0365514 α      in ANC's #3, #4, #11, ...

........................................................................
.............................. CYCLE    6 ..............................
........................................................................

 iter      E             dE          RMSdq      gap      omega  full diag
   1    -22.0161377 -0.220161E+02  0.489E-02    1.88       0.0  T
   2    -22.0161386 -0.945597E-06  0.289E-02    1.88       1.0  T
   3    -22.0161384  0.170415E-06  0.868E-03    1.88       3.3  T
   4    -22.0161387 -0.291537E-06  0.252E-03    1.89      11.5  T
   5    -22.0161388 -0.293100E-07  0.913E-04    1.88      31.6  T
   6    -22.0161388 -0.696023E-09  0.286E-04    1.88     100.9  T
     SCC iter.                  ...        0 min,  0.243 sec
     gradient                   ...        0 min,  0.014 sec
 * total energy  :   -21.7479566 Eh     change       -0.2611117E-04 Eh
   gradient norm :     0.0031853 Eh/α   predicted    -0.3541748E-04 (  35.64%)
   displ. norm   :     0.0110652 α      lambda       -0.1764879E-04
   maximum displ.:     0.0049284 α      in ANC's #3, #4, #11, ...

........................................................................
.............................. CYCLE    7 ..............................
........................................................................

 iter      E             dE          RMSdq      gap      omega  full diag
   1    -22.0159652 -0.220160E+02  0.180E-02    1.88       0.0  T
   2    -22.0159653 -0.148171E-06  0.106E-02    1.87       2.7  T
   3    -22.0159653  0.422446E-07  0.446E-03    1.88       6.5  T
   4    -22.0159654 -0.765453E-07  0.654E-04    1.87      44.2  T
   5    -22.0159654 -0.161306E-08  0.337E-04    1.87      85.8  T
     SCC iter.                  ...        0 min,  0.222 sec
     gradient                   ...        0 min,  0.009 sec
 * total energy  :   -21.7479682 Eh     change       -0.1156420E-04 Eh
   gradient norm :     0.0013232 Eh/α   predicted    -0.8827595E-05 ( -23.66%)
   displ. norm   :     0.0152355 α      lambda       -0.4729573E-05
   maximum displ.:     0.0110049 α      in ANC's #3, #8, #7, ...

........................................................................
.............................. CYCLE    8 ..............................
........................................................................

 iter      E             dE          RMSdq      gap      omega  full diag
   1    -22.0158908 -0.220159E+02  0.127E-02    1.87       0.0  T
   2    -22.0158909 -0.139939E-06  0.704E-03    1.87       4.1  T
   3    -22.0158909 -0.629767E-08  0.422E-03    1.87       6.8  T
   4    -22.0158909 -0.468753E-07  0.487E-04    1.87      59.2  T
   5    -22.0158909 -0.478952E-09  0.287E-04    1.87     100.7  T
     SCC iter.                  ...        0 min,  0.116 sec
     gradient                   ...        0 min,  0.001 sec
 * total energy  :   -21.7479710 Eh     change       -0.2788214E-05 Eh
   gradient norm :     0.0006544 Eh/α   predicted    -0.2364660E-05 ( -15.19%)
   displ. norm   :     0.0024706 α      lambda       -0.5939879E-06
   maximum displ.:     0.0011137 α      in ANC's #4, #8, #11, ...

........................................................................
.............................. CYCLE    9 ..............................
........................................................................

 iter      E             dE          RMSdq      gap      omega  full diag
   1    -22.0159367 -0.220159E+02  0.447E-03    1.87       0.0  T
   2    -22.0159367 -0.968211E-08  0.265E-03    1.87      10.9  T
   3    -22.0159367  0.136589E-08  0.813E-04    1.87      35.5  T
   4    -22.0159367 -0.262544E-08  0.196E-04    1.87     147.6  T
     SCC iter.                  ...        0 min,  0.099 sec
     gradient                   ...        0 min,  0.001 sec
 * total energy  :   -21.7479715 Eh     change       -0.5066240E-06 Eh
   gradient norm :     0.0002032 Eh/α   predicted    -0.2961719E-06 ( -41.54%)
   displ. norm   :     0.0011374 α      lambda       -0.6719107E-07
   maximum displ.:     0.0008023 α      in ANC's #8, #7, #3, ...

........................................................................
.............................. CYCLE   10 ..............................
........................................................................

 iter      E             dE          RMSdq      gap      omega  full diag
   1    -22.0159509 -0.220160E+02  0.114E-03    1.87       0.0  T
   2    -22.0159509 -0.153499E-08  0.681E-04    1.87      42.4  T
   3    -22.0159509  0.215543E-10  0.291E-04    1.87      99.3  T
     SCC iter.                  ...        0 min,  0.099 sec
     gradient                   ...        0 min,  0.003 sec
 * total energy  :   -21.7479715 Eh     change       -0.6235047E-07 Eh
   gradient norm :     0.0000665 Eh/α   predicted    -0.3463833E-07 ( -44.45%)
   displ. norm   :     0.0007914 α      lambda       -0.8379223E-08
   maximum displ.:     0.0004303 α      in ANC's #8, #7, #3, ...

   *** GEOMETRY OPTIMIZATION CONVERGED AFTER 10 ITERATIONS ***

------------------------------------------------------------------------
 total energy gain   :        -0.0123134 Eh       -7.7268 kcal/mol
 total RMSD          :         0.2412917 a0        0.1277 Å
 total power (kW/mol):        -3.2328948 (step)  -22.8027 (real)
------------------------------------------------------------------------

 ANCopt (total)                0 d,  0 h,  0 min,  1.418 sec
 optimizer setup                ...        0 min,  0.000 sec (  0.013%)
 model hessian                  ...        0 min,  0.001 sec (  0.097%)
 ANC generation                 ...        0 min,  0.000 sec (  0.018%)
 coordinate transformation      ...        0 min,  0.000 sec (  0.008%)
 single point calculation       ...        0 min,  1.410 sec ( 99.455%)
 optimization log               ...        0 min,  0.001 sec (  0.060%)
 hessian update                 ...        0 min,  0.003 sec (  0.242%)
 rational function              ...        0 min,  0.001 sec (  0.061%)

================
 final structure:
================
12
 xtb: 6.7.0 (08769fc)
N           -2.68161049098001       -0.37665948547706       -0.00026620160427
C           -1.52651151408915        0.13500198728767       -0.00007972997491
N           -0.45693747967273       -0.72131743488820        0.00018343491537
C            0.88971167405931       -0.46559889919275        0.00041393944779
N            1.79502279696483       -1.35796970151630        0.00064525226035
C            1.42412493709535        0.93173566425777        0.00042173663173
O            0.79732123306142        1.95640736119882        0.00003726529816
H           -3.44550772639494        0.29041777748501       -0.00051760741739
H           -1.27478383682392        1.19581748337168       -0.00019888961056
H           -0.73412091793809       -1.70096894915453        0.00021238571451
H            1.46261535713871       -2.31957367070571        0.00063868594596
H            2.52644286677921        0.91454257293361        0.00075367129326
 
 Bond Distances (Angstroems)
 ---------------------------
N1-C2=1.2633         N1-H8=1.0142         C2-N1=1.2633         C2-N3=1.3701         C2-H9=1.0903         N3-C2=1.3701         
N3-C4=1.3707         N3-H10=1.0181        C4-N3=1.3707         C4-N5=1.2712         C4-C6=1.4960         N5-C4=1.2712         
N5-H11=1.0174        C6-C4=1.4960         C6-O7=1.2012         C6-H12=1.1025        O7-C6=1.2012         H8-N1=1.0142         
H9-C2=1.0903         H10-N3=1.0181        H11-N5=1.0174        H12-C6=1.1025        
 C  H  Rav=1.0964 sigma=0.0061  Rmin=1.0903  Rmax=1.1025     2
 C  C  Rav=1.4960 sigma=0.0000  Rmin=1.4960  Rmax=1.4960     1
 N  H  Rav=1.0166 sigma=0.0017  Rmin=1.0142  Rmax=1.0181     3
 N  C  Rav=1.3188 sigma=0.0517  Rmin=1.2633  Rmax=1.3707     4
 O  C  Rav=1.2012 sigma=0.0000  Rmin=1.2012  Rmax=1.2012     1
 
 selected bond angles (degree)
 --------------------
H8-N1-C2=114.98                N3-C2-N1=117.43                H9-C2-N1=127.24                H9-C2-N3=115.33                
C4-N3-C2=130.57                H10-N3-C2=112.88               H10-N3-C4=116.55               N5-C4-N3=124.66                
C6-C4-N3=121.68                C6-C4-N5=113.66                H11-N5-C4=115.52               O7-C6-C4=127.62                
H12-C6-C4=110.04               H12-C6-O7=122.35               
 
 selected dihedral angles (degree)
 ---------------------------------
N3-C2-N1-H8=180.00            H9-C2-N1-H8=  0.00            C4-N3-C2-N1=180.00            C4-N3-C2-H9=  0.00            
H10-N3-C2-N1=  0.00           H10-N3-C2-H9=180.00           N5-C4-N3-C2=180.00            N5-C4-N3-H10=  0.00           
C6-C4-N3-C2=  0.00            C6-C4-N3-H10=180.00           H11-N5-C4-N3=  0.00           H11-N5-C4-C6=180.00           
O7-C6-C4-N3=  0.00            O7-C6-C4-N5=179.99            H12-C6-C4-N3=179.99           H12-C6-C4-N5=  0.00           
           -------------------------------------------------
          |                Final Singlepoint                |
           -------------------------------------------------

          ...................................................
          :                      SETUP                      :
          :.................................................:
          :  # basis functions                  33          :
          :  # atomic orbitals                  33          :
          :  # shells                           19          :
          :  # electrons                        38          :
          :  max. iterations                  4000          :
          :  Hamiltonian                  GFN2-xTB          :
          :  restarted?                      false          :
          :  GBSA solvation                   true          :
          :  PC potential                    false          :
          :  electronic temp.          300.0000000     K    :
          :  accuracy                    1.0000000          :
          :  -> integral cutoff          0.2500000E+02      :
          :  -> integral neglect         0.1000000E-07      :
          :  -> SCF convergence          0.1000000E-05 Eh   :
          :  -> wf. convergence          0.1000000E-03 e    :
          :  Broyden damping             0.4000000          :
          :  net charge                          0          :
          :  unpaired electrons                  0          :
          ...................................................

 iter      E             dE          RMSdq      gap      omega  full diag
   1    -22.0159509 -0.220160E+02  0.808E-05    1.87       0.0  T
   2    -22.0159509 -0.234053E-10  0.404E-05    1.87     714.4  T
   3    -22.0159509 -0.115534E-10  0.198E-05    1.87    1457.0  T

   *** convergence criteria satisfied after 3 iterations ***

         #    Occupation            Energy/Eh            Energy/eV
      -------------------------------------------------------------
         1        2.0000           -0.7478407             -20.3498
       ...           ...                  ...                  ...
        13        2.0000           -0.5178534             -14.0915
        14        2.0000           -0.5073603             -13.8060
        15        2.0000           -0.4853112             -13.2060
        16        2.0000           -0.4330437             -11.7837
        17        2.0000           -0.4160271             -11.3207
        18        2.0000           -0.4096911             -11.1483
        19        2.0000           -0.3911420             -10.6435 (HOMO)
        20                         -0.3224319              -8.7738 (LUMO)
        21                         -0.2412259              -6.5641
        22                         -0.1761134              -4.7923
        23                         -0.0059273              -0.1613
        24                          0.0609289               1.6580
       ...                                ...                  ...
        33                          0.6683177              18.1858
      -------------------------------------------------------------
                  HL-Gap            0.0687101 Eh            1.8697 eV
             Fermi-level           -0.3567870 Eh           -9.7087 eV

 SCC (total)                   0 d,  0 h,  0 min,  0.103 sec
 SCC setup                      ...        0 min,  0.000 sec (  0.165%)
 Dispersion                     ...        0 min,  0.000 sec (  0.035%)
 classical contributions        ...        0 min,  0.000 sec (  0.010%)
 integral evaluation            ...        0 min,  0.000 sec (  0.378%)
 iterations                     ...        0 min,  0.101 sec ( 97.955%)
 molecular gradient             ...        0 min,  0.001 sec (  1.308%)
 printout                       ...        0 min,  0.000 sec (  0.110%)

         :::::::::::::::::::::::::::::::::::::::::::::::::::::
         ::                     SUMMARY                     ::
         :::::::::::::::::::::::::::::::::::::::::::::::::::::
         :: total energy             -21.747971547681 Eh    ::
         :: total w/o Gsasa/hb       -21.739131256632 Eh    ::
         :: gradient norm              0.000065662724 Eh/a0 ::
         :: HOMO-LUMO gap              1.869696258635 eV    ::
         ::.................................................::
         :: SCC energy               -22.015943224273 Eh    ::
         :: -> isotropic ES            0.048679052473 Eh    ::
         :: -> anisotropic ES          0.001037530353 Eh    ::
         :: -> anisotropic XC          0.018665162162 Eh    ::
         :: -> dispersion             -0.007351394344 Eh    ::
         :: -> Gsolv                  -0.011224144082 Eh    ::
         ::    -> Gelec               -0.002383853033 Eh    ::
         ::    -> Gsasa               -0.011048434188 Eh    ::
         ::    -> Ghb                  0.000000000000 Eh    ::
         ::    -> Gshift               0.002208143139 Eh    ::
         :: repulsion energy           0.267971676592 Eh    ::
         :: add. restraining           0.000000000000 Eh    ::
         :: total charge              -0.000000000000 e     ::
         :::::::::::::::::::::::::::::::::::::::::::::::::::::

           -------------------------------------------------
          |                Property Printout                |
           -------------------------------------------------

    * Orbital Energies and Occupations

         #    Occupation            Energy/Eh            Energy/eV
      -------------------------------------------------------------
         1        2.0000           -0.7478407             -20.3498
       ...           ...                  ...                  ...
         7        2.0000           -0.6015860             -16.3700
         8        2.0000           -0.5753677             -15.6566
         9        2.0000           -0.5733591             -15.6019
        10        2.0000           -0.5656658             -15.3925
        11        2.0000           -0.5394755             -14.6799
        12        2.0000           -0.5266504             -14.3309
        13        2.0000           -0.5178534             -14.0915
        14        2.0000           -0.5073603             -13.8060
        15        2.0000           -0.4853112             -13.2060
        16        2.0000           -0.4330437             -11.7837
        17        2.0000           -0.4160271             -11.3207
        18        2.0000           -0.4096911             -11.1483
        19        2.0000           -0.3911420             -10.6435 (HOMO)
        20                         -0.3224319              -8.7738 (LUMO)
        21                         -0.2412259              -6.5641
        22                         -0.1761134              -4.7923
        23                         -0.0059273              -0.1613
        24                          0.0609289               1.6580
        25                          0.1114056               3.0315
        26                          0.1277477               3.4762
        27                          0.1660812               4.5193
        28                          0.1942403               5.2855
        29                          0.2392243               6.5096
        30                          0.3837717              10.4430
       ...                                ...                  ...
        33                          0.6683177              18.1858
      -------------------------------------------------------------
                  HL-Gap            0.0687101 Eh            1.8697 eV
             Fermi-level           -0.3567870 Eh           -9.7087 eV

     #   Z          covCN         q      C6AA      α(0)
     1   7 N        1.792    -0.353    29.999     8.113
     2   6 C        2.749     0.142    24.895     8.170
     3   7 N        2.708    -0.125    23.724     7.234
     4   6 C        2.802     0.153    24.681     8.139
     5   7 N        1.795    -0.344    29.755     8.080
     6   6 C        2.776     0.210    23.549     7.948
     7   8 O        0.856    -0.312    19.996     5.995
     8   1 H        0.860     0.150     1.399     1.853
     9   1 H        0.924     0.043     2.416     2.431
    10   1 H        0.860     0.210     1.058     1.611
    11   1 H        0.860     0.160     1.336     1.810
    12   1 H        0.923     0.066     2.126     2.280

 Mol. C6AA /au·bohr⁶  :       1712.268583
 Mol. C8AA /au·bohr⁸  :      38321.872752
 Mol. α(0) /au        :         63.664311


Wiberg/Mayer (AO) data.
largest (>0.10) Wiberg bond orders for each atom

 ---------------------------------------------------------------------------
     #   Z sym  total        # sym  WBO       # sym  WBO       # sym  WBO
 ---------------------------------------------------------------------------
     1   7 N    3.004 --     2 C    1.825     8 H    0.951
     2   6 C    3.957 --     1 N    1.825     3 N    1.159     9 H    0.935
     3   7 N    3.541 --     4 C    1.161     2 C    1.159    10 H    0.914
                             5 N    0.162
     4   6 C    3.970 --     5 N    1.730     3 N    1.161     6 C    0.989
     5   7 N    3.015 --     4 C    1.730    11 H    0.944     3 N    0.162
     6   6 C    3.905 --     7 O    1.918     4 C    0.989    12 H    0.929
     7   8 O    2.107 --     6 C    1.918
     8   1 H    0.976 --     1 N    0.951
     9   1 H    0.998 --     2 C    0.935
    10   1 H    0.956 --     3 N    0.914
    11   1 H    0.974 --     5 N    0.944
    12   1 H    0.995 --     6 C    0.929
 ---------------------------------------------------------------------------

Topologies differ in total number of bonds
Writing topology from bond orders to xtbtopo.mol

molecular dipole:
                 x           y           z       tot (Debye)
 q only:        0.060      -0.659       0.000
   full:       -0.153      -0.526       0.000       1.393
molecular quadrupole (traceless):
                xx          xy          yy          xz          yz          zz
 q only:       -0.690      -1.085       0.002       0.000       0.000       0.687
  q+dip:       -2.863      -2.296       1.938       0.000      -0.000       0.925
   full:       -4.061      -2.550       0.691      -0.001       0.000       3.370

           -------------------------------------------------
          |                Geometry Summary                 |
           -------------------------------------------------

      molecular mass/u    :       99.0914260
   center of mass at/Å    :        0.0193525       0.0251195       0.0001862
  moments of inertia/u·Å² :        0.1182849E+03   0.2454574E+03   0.3637423E+03
rotational constants/cm⁻¹ :        0.1425172E+00   0.6867845E-01   0.4634499E-01

 * 8 selected distances

     #   Z          #   Z                                           value/Å
     1   7 N        2   6 C                                       1.2633493
     2   6 C        3   7 N                                       1.3701358
     3   7 N        4   6 C                                       1.3707138 (max)
     4   6 C        5   7 N                                       1.2711862
     6   6 C        7   8 O                                       1.2011808
     2   6 C        9   1 H                                       1.0902736
     3   7 N       10   1 H                                       1.0181100 (min)
     6   6 C       12   1 H                                       1.1024522

 * 4 distinct bonds (by element types)

   Z      Z             #   av. dist./Å        max./Å        min./Å
   1 H    6 C           2     1.0963629     1.1024522     1.0902736
   1 H    7 N           1     1.0181100     1.0181100     1.0181100
   6 C    7 N           4     1.3188462     1.3707138     1.2633493
   6 C    8 O           1     1.2011808     1.2011808     1.2011808


optimized geometry written to: xtbopt.xyz


           -------------------------------------------------
          | TOTAL ENERGY              -21.747971547681 Eh   |
          | GRADIENT NORM               0.000065662724 Eh/α |
          | HOMO-LUMO GAP               1.869696258635 eV   |
           -------------------------------------------------

------------------------------------------------------------------------
 * finished run on 2024/08/07 at 19:43:51.354     
------------------------------------------------------------------------
 total:
 * wall-time:     0 d,  0 h,  0 min,  1.647 sec
 *  cpu-time:     0 d,  0 h,  0 min, 11.078 sec
 * ratio c/w:     6.728 speedup
 SCF:
 * wall-time:     0 d,  0 h,  0 min,  0.114 sec
 *  cpu-time:     0 d,  0 h,  0 min,  0.876 sec
 * ratio c/w:     7.661 speedup
 ANC optimizer:
 * wall-time:     0 d,  0 h,  0 min,  1.521 sec
 *  cpu-time:     0 d,  0 h,  0 min, 10.130 sec
 * ratio c/w:     6.658 speedup

