12
 energy: -21.747971547681 gnorm: 0.000065662724 xtb: 6.7.0 (08769fc)
N           -2.68161049098001       -0.37665948547706       -0.00026620160427
C           -1.52651151408915        0.13500198728767       -0.00007972997491
N           -0.45693747967273       -0.72131743488820        0.00018343491537
C            0.88971167405931       -0.46559889919275        0.00041393944779
N            1.79502279696483       -1.35796970151630        0.00064525226035
C            1.42412493709535        0.93173566425777        0.00042173663173
O            0.79732123306142        1.95640736119882        0.00003726529816
H           -3.44550772639494        0.29041777748501       -0.00051760741739
H           -1.27478383682392        1.19581748337168       -0.00019888961056
H           -0.73412091793809       -1.70096894915453        0.00021238571451
H            1.46261535713871       -2.31957367070571        0.00063868594596
H            2.52644286677921        0.91454257293361        0.00075367129326
