12
 energy: -21.735658101617 gnorm: 0.093952215269 xtb: 6.7.0 (08769fc)
N           -2.69167966680000       -0.22041994810000       -0.00001996550000
C           -1.46921020450000        0.10538049420000        0.00008561910000
N           -0.43120479980000       -0.80336716920000        0.00010976010000
C            0.93253688610000       -0.49289080850000       -0.00049359260000
N            1.81045804380000       -1.42333054480000        0.00016277230000
C            1.35653692720000        0.89891504350000       -0.00051505280000
O            0.61855748730000        1.84857463410000        0.00030757840000
H           -3.40762036250000        0.46031208010000       -0.00053305130000
H           -1.18928378650000        1.14741260050000       -0.00060588480000
H           -0.69398727780000       -1.78287110050000        0.00089303600000
H            1.52087611910000       -2.36560116530000        0.00079535940000
H            2.41978753360000        1.10972058960000        0.00205736460000
12
 energy: -21.744285266472 gnorm: 0.047660833043 xtb: 6.7.0 (08769fc)
N           -2.69616153778640       -0.28900107142525       -0.00024564000572
C           -1.49604312869056        0.10688314274387       -0.00028570547694
N           -0.44816210620717       -0.77573979745183       -0.00000041139109
C            0.91055216142459       -0.48110789778833        0.00008454028807
N            1.79872677343556       -1.39128504291808        0.00045134484818
C            1.38475473516838        0.91615561468877        0.00098576976822
O            0.69974695111804        1.91277645621567       -0.00000678626176
H           -3.42697920489996        0.40141813915291       -0.00033532811542
H           -1.22108243503788        1.15826859001264       -0.00039410246210
H           -0.70480233152140       -1.75822858144176        0.00053158672757
H            1.49688669869737       -2.35243197643248        0.00070508666477
H            2.47833032349943        1.03412713024386        0.00075358831621
12
 energy: -21.747468079208 gnorm: 0.019788888319 xtb: 6.7.0 (08769fc)
N           -2.69034527566696       -0.34726891127109       -0.00001678673558
C           -1.51374088344467        0.12021544908843       -0.00007492140454
N           -0.46120957301263       -0.74732436019019        0.00051474608444
C            0.88890974578847       -0.47686326208642        0.00003421744049
N            1.79845988253661       -1.36074140255082        0.00014716441138
C            1.39621515761237        0.92594423618228       -0.00117318861816
O            0.75058121650394        1.94561151373519        0.00035332222624
H           -3.42853800671708        0.35176086849826       -0.00056588106934
H           -1.24007603794981        1.17832055627109       -0.00088483178879
H           -0.72089157118302       -1.73084584606384        0.00113037774798
H            1.48771597026828       -2.33237656373125        0.00029181370558
H            2.50868627446451        0.95540242771835        0.00248791090031
12
 energy: -21.747816755890 gnorm: 0.010353336273 xtb: 6.7.0 (08769fc)
N           -2.68883824891411       -0.36362983696901       -0.00058846041191
C           -1.52152887641961        0.12674780523029       -0.00027505836558
N           -0.46157298785392       -0.73597156748584        0.00003090434179
C            0.88644215788936       -0.47342961038760        0.00088049188705
N            1.79893622904130       -1.35577861691500        0.00095998213421
C            1.40664610553371        0.92884661302300        0.00278749864005
O            0.77218414397183        1.95026293700358        0.00016813464075
H           -3.43224658333083        0.32961661814282       -0.00059669548088
H           -1.25469465569212        1.18542134923744        0.00007912724842
H           -0.72636568906803       -1.71877319836126       -0.00024000294810
H            1.48068519716233       -2.32465804959567        0.00073509265840
H            2.51612010688008        0.93318026267725       -0.00169707144421
12
 energy: -21.747930514929 gnorm: 0.004872698880 xtb: 6.7.0 (08769fc)
N           -2.68633863755686       -0.37313777228284        0.00059063109945
C           -1.52649546044677        0.13137922178566       -0.00004313856823
N           -0.45944618588457       -0.72758505173083        0.00069285844798
C            0.88710718178535       -0.46929215004267       -0.00061159468450
N            1.79782377400588       -1.35537231855503       -0.00034916681431
C            1.41691466112704        0.93121917356699       -0.00405134990628
O            0.78897824061998        1.95409246925096        0.00010512789148
H           -3.43722405246546        0.30971697930558       -0.00033841505596
H           -1.26776363027497        1.19025942298195       -0.00150257886865
H           -0.73035005205803       -1.70905398421541        0.00178628604522
H            1.47184735390859       -2.31962334312878        0.00014668851249
H            2.52071370643981        0.91923205866442        0.00581859480130
12
 energy: -21.747956626098 gnorm: 0.003185709536 xtb: 6.7.0 (08769fc)
N           -2.68411600055816       -0.37621753415292       -0.00061781087867
C           -1.52765155935409        0.13330687591904       -0.00026292362311
N           -0.45758561872252       -0.72379934711222       -0.00022466249776
C            0.88844002258030       -0.46651865461389        0.00095581600990
N            1.79620369538237       -1.35655405548043        0.00120515729348
C            1.42229306650574        0.93226699437487        0.00380702082048
O            0.79633378429380        1.95663876193428       -0.00010868199329
H           -3.44134011466985        0.29829065918914       -0.00046612601049
H           -1.27379386390731        1.19275729845985        0.00023157730707
H           -0.73229898428007       -1.70422875327595       -0.00072770675682
H            1.46592591826036       -2.31815793215504        0.00093547274646
H            2.52335655366942        0.91405039251327       -0.00248318951724
12
 energy: -21.747968190297 gnorm: 0.001323352517 xtb: 6.7.0 (08769fc)
N           -2.68328129533367       -0.37605161676401       -0.00028094437902
C           -1.52695208624899        0.13352745810924       -0.00016963018881
N           -0.45730005143785       -0.72333681556456        0.00016610904865
C            0.88889811121581       -0.46595335398361        0.00055795267944
N            1.79554804135976       -1.35702638349173        0.00071750949335
C            1.42277653941960        0.93217488507167        0.00090516447839
O            0.79641031814993        1.95699937897605       -0.00002935686189
H           -3.44293984354774        0.29590060665941       -0.00048151630654
H           -1.27379987256766        1.19356780150214       -0.00024418834194
H           -0.73271053086872       -1.70348243673767        0.00016686337452
H            1.46469090009226       -2.31870719780294        0.00054904421988
H            2.52442666896727        0.91422237962601        0.00038693568397
12
 energy: -21.747970978510 gnorm: 0.000654387526 xtb: 6.7.0 (08769fc)
N           -2.68167887430024       -0.37640587467491       -0.00015906159097
C           -1.52622464464897        0.13455527386579       -0.00007114418151
N           -0.45689838322637       -0.72177101370631        0.00027648321273
C            0.88967456802302       -0.46519761773322        0.00030340476183
N            1.79484329816937       -1.35774178054676        0.00050223070401
C            1.42403225084735        0.93191669812955       -0.00021998088883
O            0.79718175039683        1.95672966363504        0.00005867105587
H           -3.44560819618230        0.29088548041657       -0.00052498606375
H           -1.27451754519692        1.19551113934271       -0.00035920950141
H           -0.73395096759860       -1.70139395637278        0.00045642546923
H            1.46259496884885       -2.31944500115029        0.00053956622992
H            2.52631867406797        0.91419169439463        0.00144154369288
12
 energy: -21.747971485134 gnorm: 0.000203190612 xtb: 6.7.0 (08769fc)
N           -2.68168084481385       -0.37660572653659       -0.00027506161359
C           -1.52644847167854        0.13483124122204       -0.00014623298377
N           -0.45696415495154       -0.72149085166805        0.00016759843069
C            0.88965409245490       -0.46544573307899        0.00042026837631
N            1.79501536575855       -1.35779986511566        0.00065673712605
C            1.42408726036891        0.93182177555987        0.00043023765898
O            0.79732297707342        1.95651075651738        0.00002408847357
H           -3.44548861901338        0.29065338876433       -0.00046917840661
H           -1.27471323880317        1.19569109753970       -0.00019105805762
H           -0.73408579162914       -1.70114043568241        0.00022496599757
H            1.46270157373482       -2.31946128009374        0.00063619246312
H            2.52636675069900        0.91427033817211        0.00076538543530
12
 energy: -21.747971547485 gnorm: 0.000066593708 xtb: 6.7.0 (08769fc)
N           -2.68161049098001       -0.37665948547706       -0.00026620160427
C           -1.52651151408915        0.13500198728767       -0.00007972997491
N           -0.45693747967273       -0.72131743488820        0.00018343491537
C            0.88971167405931       -0.46559889919275        0.00041393944779
N            1.79502279696483       -1.35796970151630        0.00064525226035
C            1.42412493709535        0.93173566425777        0.00042173663173
O            0.79732123306142        1.95640736119882        0.00003726529816
H           -3.44550772639494        0.29041777748501       -0.00051760741739
H           -1.27478383682392        1.19581748337168       -0.00019888961056
H           -0.73412091793809       -1.70096894915453        0.00021238571451
H            1.46261535713871       -2.31957367070571        0.00063868594596
H            2.52644286677921        0.91454257293361        0.00075367129326
