      -----------------------------------------------------------      
     |                   =====================                   |     
     |                           x T B                           |     
     |                   =====================                   |     
     |                         S. Grimme                         |     
     |          Mulliken Center for Theoretical Chemistry        |     
     |                    University of Bonn                     |     
      -----------------------------------------------------------      

   * xtb version 6.7.0 (08769fc) compiled by 'albert@albert-system' on 2024-03-04

   xtb is free software: you can redistribute it and/or modify it under
   the terms of the GNU Lesser General Public License as published by
   the Free Software Foundation, either version 3 of the License, or
   (at your option) any later version.
   
   xtb is distributed in the hope that it will be useful,
   but WITHOUT ANY WARRANTY; without even the implied warranty of
   MERCHANTABILITY or FITNESS FOR A PARTICULAR PURPOSE.  See the
   GNU Lesser General Public License for more details.
   
   Cite this work as:
   * C. Bannwarth, E. Caldeweyher, S. Ehlert, A. Hansen, P. Pracht,
     J. Seibert, S. Spicher, S. Grimme, WIREs Comput. Mol. Sci., 2020, 11,
     e01493. DOI: 10.1002/wcms.1493
   
   for GFN2-xTB:
   * C. Bannwarth, S. Ehlert and S. Grimme., J. Chem. Theory Comput., 2019,
     15, 1652-1671. DOI: 10.1021/acs.jctc.8b01176
   for GFN1-xTB:
   * S. Grimme, C. Bannwarth, P. Shushkov, J. Chem. Theory Comput., 2017,
     13, 1989-2009. DOI: 10.1021/acs.jctc.7b00118
   for GFN0-xTB:
   * P. Pracht, E. Caldeweyher, S. Ehlert, S. Grimme, ChemRxiv, 2019, preprint.
     DOI: 10.26434/chemrxiv.8326202.v1
   for GFN-FF:
   * S. Spicher and S. Grimme, Angew. Chem. Int. Ed., 2020, 59, 15665-15673.
     DOI: 10.1002/anie.202004239
   
   for ALPB and GBSA implicit solvation:
   * S. Ehlert, M. Stahn, S. Spicher, S. Grimme, J. Chem. Theory Comput.,
     2021, 17, 4250-4261. DOI: 10.1021/acs.jctc.1c00471
   
   for ddCOSMO and CPCM-X implicit solvation:
   * M. Stahn, S. Ehlert, S. Grimme, J. Phys. Chem. A,
     2023, XX, XXXX-XXXX. DOI: 10.1021/acs.jpca.3c04382
   
   for DFT-D4:
   * E. Caldeweyher, C. Bannwarth and S. Grimme, J. Chem. Phys., 2017,
     147, 034112. DOI: 10.1063/1.4993215
   * E. Caldeweyher, S. Ehlert, A. Hansen, H. Neugebauer, S. Spicher,
     C. Bannwarth and S. Grimme, J. Chem. Phys., 2019, 150, 154122.
     DOI: 10.1063/1.5090222
   * E. Caldeweyher, J.-M. Mewes, S. Ehlert and S. Grimme, Phys. Chem. Chem. Phys.
     2020, 22, 8499-8512. DOI: 10.1039/D0CP00502A
   
   for sTDA-xTB:
   * S. Grimme and C. Bannwarth, J. Chem. Phys., 2016, 145, 054103.
     DOI: 10.1063/1.4959605
   
   in the mass-spec context:
   * V. Asgeirsson, C. Bauer and S. Grimme, Chem. Sci., 2017, 8, 4879.
     DOI: 10.1039/c7sc00601b
   * J. Koopman and S. Grimme, ACS Omega 2019, 4, 12, 15120-15133.
     DOI: 10.1021/acsomega.9b02011
   
   for metadynamics refer to:
   * S. Grimme, J. Chem. Theory Comput., 2019, 155, 2847-2862
     DOI: 10.1021/acs.jctc.9b00143
   
   for SPH calculations refer to:
   * S. Spicher and S. Grimme, J. Chem. Theory Comput., 2021, 17, 1701-1714
     DOI: 10.1021/acs.jctc.0c01306
   
   for ONIOM refer to:
   * C. Plett, A. Katbashev, S. Ehlert, S. Grimme, M. Bursch,
     Phys. Chem. Chem. Phys., 2023, 25, 17860-17868. DOI: 10.1039/D3CP02178E
   
   for DIPRO refer to:
   * J. Kohn, N. Gildemeister, S. Grimme, D. Fazzi, A. Hansen,
     J. Chem. Phys., 2023, just accepted.
   
   for PTB refer to:
   * S. Grimme, M. Mueller, A. Hansen, J. Chem. Phys., 2023, 158, 124111.
     DOI: 10.1063/5.0137838
   
   with help from (in alphabetical order)
   P. Atkinson, C. Bannwarth, F. Bohle, G. Brandenburg, E. Caldeweyher
   M. Checinski, S. Dohm, S. Ehlert, S. Ehrlich, I. Gerasimov, C. Hölzer
   A. Katbashev, J. Kohn, J. Koopman, C. Lavigne, S. Lehtola, F. März, M. Müller,
   F. Musil, H. Neugebauer, J. Pisarek, C. Plett, P. Pracht, F. Pultar,
   J. Seibert, P. Shushkov, S. Spicher, M. Stahn, M. Steiner, T. Strunk,
   J. Stückrath, T. Rose, and J. Unsleber
   
 * started run on 2024/08/07 at 20:25:10.751     
   ID    Z sym.   atoms
    1    6 C      1-3, 5, 6
    2    8 O      4
    3    7 N      7
    4    1 H      8-14

           -------------------------------------------------
          |                Calculation Setup                |
           -------------------------------------------------

          program call               : /home/mvotokps/xtb-dist/bin/xtb crest_best.xyz --gfn 2 --alpb toluene --opt vtight -c 0 --iterations 4000
          coordinate file            : crest_best.xyz
          omp threads                :                     8


           -------------------------------------------------
          |                 G F N 2 - x T B                 |
           -------------------------------------------------

        Reference                      10.1021/acs.jctc.8b01176
      * Hamiltonian:
        H0-scaling (s, p, d)           1.850000    2.230000    2.230000
        zeta-weighting                 0.500000
      * Dispersion:
        s8                             2.700000
        a1                             0.520000
        a2                             5.000000
        s9                             5.000000
      * Repulsion:
        kExp                           1.500000    1.000000
        rExp                           1.000000
      * Coulomb:
        alpha                          2.000000
        third order                    shell-resolved
        anisotropic                    true
        a3                             3.000000
        a5                             4.000000
        cn-shift                       1.200000
        cn-exp                         4.000000
        max-rad                        5.000000

      * Solvation model:               ALPB
        Solvent                        toluene
        Parameter file                 internal GFN2-xTB/ALPB
        Dielectric constant                7.0000E+00
        Reference state                gsolv [1 M gas/solution]
        Free energy shift                  2.2081E-03 Eh       1.3856E+00 kcal/mol
        Temperature                        2.9815E+02 K
        Density                            8.6700E-01 kg/L
        Solvent mass                       7.8110E+01 g/mol
        Interaction kernel             P16
        Born radius scaling (c1)           1.7172E+00
        Born radii integrator          GBOBC
        Born offset                        0.0000E+00 a0       0.0000E+00 AA
        H-bond correction              false
        Ion screening                  false
        Surface tension                    1.0000E-05 Eh       1.5569E+01 dyn/cm
        Grid points                               230 per atom

          ...................................................
          :                      SETUP                      :
          :.................................................:
          :  # basis functions                  35          :
          :  # atomic orbitals                  35          :
          :  # shells                           21          :
          :  # electrons                        38          :
          :  max. iterations                  4000          :
          :  Hamiltonian                  GFN2-xTB          :
          :  restarted?                      false          :
          :  GBSA solvation                   true          :
          :  PC potential                    false          :
          :  electronic temp.          300.0000000     K    :
          :  accuracy                    1.0000000          :
          :  -> integral cutoff          0.2500000E+02      :
          :  -> integral neglect         0.1000000E-07      :
          :  -> SCF convergence          0.1000000E-05 Eh   :
          :  -> wf. convergence          0.1000000E-03 e    :
          :  Broyden damping             0.4000000          :
          :  net charge                          0          :
          :  unpaired electrons                  0          :
          ...................................................

 iter      E             dE          RMSdq      gap      omega  full diag
   1    -21.4463397 -0.214463E+02  0.514E+00    5.74       0.0  T
   2    -21.4701171 -0.237774E-01  0.296E+00    5.26       1.0  T
   3    -21.4515547  0.185625E-01  0.173E+00    4.65       1.0  T
   4    -21.4764455 -0.248909E-01  0.573E-01    4.63       1.0  T
   5    -21.4786959 -0.225034E-02  0.147E-01    4.67       1.0  T
   6    -21.4787552 -0.593249E-04  0.476E-02    4.72       1.0  T
   7    -21.4787586 -0.345532E-05  0.167E-02    4.72       1.6  T
   8    -21.4787592 -0.521432E-06  0.586E-03    4.72       4.6  T
   9    -21.4787593 -0.113971E-06  0.257E-03    4.72      10.4  T
  10    -21.4787593 -0.120963E-07  0.616E-04    4.72      43.4  T
  11    -21.4787593 -0.500105E-09  0.112E-04    4.72     238.9  T

   *** convergence criteria satisfied after 11 iterations ***

         #    Occupation            Energy/Eh            Energy/eV
      -------------------------------------------------------------
         1        2.0000           -0.7219991             -19.6466
       ...           ...                  ...                  ...
        13        2.0000           -0.4952793             -13.4772
        14        2.0000           -0.4893157             -13.3150
        15        2.0000           -0.4841669             -13.1749
        16        2.0000           -0.4625983             -12.5879
        17        2.0000           -0.4494135             -12.2292
        18        2.0000           -0.4431360             -12.0583
        19        2.0000           -0.4184874             -11.3876 (HOMO)
        20                         -0.2450035              -6.6669 (LUMO)
        21                         -0.2317858              -6.3072
        22                         -0.0393922              -1.0719
        23                         -0.0227991              -0.6204
        24                          0.0358771               0.9763
       ...                                ...                  ...
        35                          1.0742183              29.2310
      -------------------------------------------------------------
                  HL-Gap            0.1734838 Eh            4.7207 eV
             Fermi-level           -0.3317454 Eh           -9.0273 eV

 SCC (total)                   0 d,  0 h,  0 min,  0.114 sec
 SCC setup                      ...        0 min,  0.000 sec (  0.307%)
 Dispersion                     ...        0 min,  0.000 sec (  0.092%)
 classical contributions        ...        0 min,  0.000 sec (  0.011%)
 integral evaluation            ...        0 min,  0.001 sec (  0.511%)
 iterations                     ...        0 min,  0.109 sec ( 95.862%)
 molecular gradient             ...        0 min,  0.003 sec (  2.208%)
 printout                       ...        0 min,  0.000 sec (  0.137%)

         :::::::::::::::::::::::::::::::::::::::::::::::::::::
         ::                     SUMMARY                     ::
         :::::::::::::::::::::::::::::::::::::::::::::::::::::
         :: total energy             -21.200001428420 Eh    ::
         :: total w/o Gsasa/hb       -21.191398164972 Eh    ::
         :: gradient norm              0.056906896080 Eh/a0 ::
         :: HOMO-LUMO gap              4.720734716112 eV    ::
         ::.................................................::
         :: SCC energy               -21.478741451429 Eh    ::
         :: -> isotropic ES            0.030079463115 Eh    ::
         :: -> anisotropic ES          0.003388194697 Eh    ::
         :: -> anisotropic XC          0.020006399272 Eh    ::
         :: -> dispersion             -0.008723477608 Eh    ::
         :: -> Gsolv                  -0.010599245587 Eh    ::
         ::    -> Gelec               -0.001995982139 Eh    ::
         ::    -> Gsasa               -0.010811406586 Eh    ::
         ::    -> Ghb                  0.000000000000 Eh    ::
         ::    -> Gshift               0.002208143139 Eh    ::
         :: repulsion energy           0.278740023009 Eh    ::
         :: add. restraining           0.000000000000 Eh    ::
         :: total charge               0.000000000000 e     ::
         :::::::::::::::::::::::::::::::::::::::::::::::::::::

      ----------------------------------------------------------- 
     |                   =====================                   |
     |                        A N C O P T                        |
     |                   =====================                   |
     |               Approximate Normal Coordinate               |
     |                Rational Function Optimizer                |
      ----------------------------------------------------------- 
      ----------------------------------------------------------- 
     |                   =====================                   |
     |                        A N C O P T                        |
     |                   =====================                   |
     |               Approximate Normal Coordinate               |
     |                Rational Function Optimizer                |
      ----------------------------------------------------------- 

          ...................................................
          :                      SETUP                      :
          :.................................................:
          :   optimization level         verytight          :
          :   max. optcycles                   280          :
          :   ANC micro-cycles                  20          :
          :   degrees of freedom                36          :
          :.................................................:
          :   RF solver                   davidson          :
          :   write xtbopt.log                true          :
          :   linear?                        false          :
          :   energy convergence         0.1000000E-06 Eh   :
          :   grad. convergence          0.2000000E-03 Eh/α :
          :   maxmium RF displ.          1.0000000          :
          :   Hlow (freq-cutoff)         0.1000000E-01      :
          :   Hmax (freq-cutoff)         5.0000000          :
          :   S6 in model hess.         20.0000000          :
          ...................................................

generating ANC from model Hessian ...
Using Lindh-Hessian (1995)
 Shifting diagonal of input Hessian by   6.250616997641421E-003
 Lowest  eigenvalues of input Hessian
    0.000000    0.000000    0.000000    0.000000    0.000000    0.000000
    0.010000    0.012556    0.015714    0.019888    0.021625    0.037872
    0.047214    0.053539    0.057096    0.062905    0.065130    0.073204
 Highest eigenvalues
    1.123044    1.214919    1.253699    1.306191    1.381802    2.531121
 

........................................................................
.............................. CYCLE    1 ..............................
........................................................................

 iter      E             dE          RMSdq      gap      omega  full diag
   1    -21.4787593 -0.214788E+02  0.428E-05    4.72       0.0  T
   2    -21.4787593 -0.185096E-11  0.270E-05    4.72     989.6  T
   3    -21.4787593  0.168754E-11  0.177E-05    4.72    1512.3  T
     SCC iter.                  ...        0 min,  0.112 sec
     gradient                   ...        0 min,  0.001 sec
 * total energy  :   -21.2000014 Eh     change       -0.4994405E-10 Eh
   gradient norm :     0.0569078 Eh/α   predicted     0.0000000E+00 (-100.00%)
   displ. norm   :     0.2103250 α      lambda       -0.4119175E-02
   maximum displ.:     0.1535767 α      in ANC's #5, #11, #20, ...

........................................................................
.............................. CYCLE    2 ..............................
........................................................................

 iter      E             dE          RMSdq      gap      omega  full diag
   1    -21.4954468 -0.214954E+02  0.329E-01    4.86       0.0  T
   2    -21.4954731 -0.262781E-04  0.189E-01    4.85       1.0  T
   3    -21.4953966  0.765253E-04  0.932E-02    4.86       1.0  T
   4    -21.4954882 -0.916884E-04  0.151E-02    4.85       1.8  T
   5    -21.4954902 -0.190925E-05  0.531E-03    4.85       5.0  T
   6    -21.4954902 -0.250099E-07  0.132E-03    4.85      20.2  T
   7    -21.4954902 -0.139719E-08  0.317E-04    4.85      84.4  T
   8    -21.4954902 -0.143430E-09  0.823E-05    4.85     324.9  T
     SCC iter.                  ...        0 min,  0.105 sec
     gradient                   ...        0 min,  0.003 sec
 * total energy  :   -21.2021900 Eh     change       -0.2188575E-02 Eh
   gradient norm :     0.0200550 Eh/α   predicted    -0.2150695E-02 (  -1.73%)
   displ. norm   :     0.2381767 α      lambda       -0.1290312E-02
   maximum displ.:     0.2161053 α      in ANC's #1, #3, #8, ...

........................................................................
.............................. CYCLE    3 ..............................
........................................................................

 iter      E             dE          RMSdq      gap      omega  full diag
   1    -21.4999979 -0.215000E+02  0.532E-01    4.88       0.0  T
   2    -21.5000589 -0.609631E-04  0.294E-01    4.89       1.0  T
   3    -21.5000242  0.346814E-04  0.730E-02    4.89       1.0  T
   4    -21.5000839 -0.596705E-04  0.138E-02    4.89       1.9  T
   5    -21.5000847 -0.874150E-06  0.596E-03    4.89       4.5  T
   6    -21.5000848 -0.119354E-06  0.165E-03    4.89      16.2  T
   7    -21.5000849 -0.587198E-08  0.398E-04    4.89      67.1  T
   8    -21.5000849 -0.927471E-10  0.169E-04    4.89     158.5  T
     SCC iter.                  ...        0 min,  0.108 sec
     gradient                   ...        0 min,  0.003 sec
 * total energy  :   -21.2025155 Eh     change       -0.3255188E-03 Eh
   gradient norm :     0.0146433 Eh/α   predicted    -0.6817603E-03 ( 109.44%)
   displ. norm   :     0.1132954 α      lambda       -0.7699009E-03
   maximum displ.:     0.0935565 α      in ANC's #5, #4, #8, ...

........................................................................
.............................. CYCLE    4 ..............................
........................................................................

 iter      E             dE          RMSdq      gap      omega  full diag
   1    -21.4994493 -0.214994E+02  0.189E-01    4.90       0.0  T
   2    -21.4994547 -0.542169E-05  0.107E-01    4.90       1.0  T
   3    -21.4994374  0.173341E-04  0.425E-02    4.90       1.0  T
   4    -21.4994586 -0.211796E-04  0.502E-03    4.90       5.3  T
   5    -21.4994586 -0.485459E-07  0.274E-03    4.90       9.7  T
   6    -21.4994586 -0.734414E-08  0.387E-04    4.90      69.1  T
   7    -21.4994586 -0.122007E-09  0.166E-04    4.90     161.1  T
     SCC iter.                  ...        0 min,  0.144 sec
     gradient                   ...        0 min,  0.014 sec
 * total energy  :   -21.2030012 Eh     change       -0.4856638E-03 Eh
   gradient norm :     0.0082805 Eh/α   predicted    -0.3898942E-03 ( -19.72%)
   displ. norm   :     0.1467833 α      lambda       -0.2981786E-03
   maximum displ.:     0.1034404 α      in ANC's #5, #1, #8, ...

........................................................................
.............................. CYCLE    5 ..............................
........................................................................

 iter      E             dE          RMSdq      gap      omega  full diag
   1    -21.4952487 -0.214952E+02  0.111E-01    4.87       0.0  T
   2    -21.4952502 -0.153073E-05  0.663E-02    4.87       1.0  T
   3    -21.4952501  0.103519E-06  0.808E-03    4.87       3.3  T
   4    -21.4952506 -0.453494E-06  0.340E-03    4.87       7.9  T
   5    -21.4952506 -0.244173E-07  0.203E-03    4.87      13.2  T
   6    -21.4952506 -0.281480E-07  0.313E-04    4.87      85.4  T
   7    -21.4952506 -0.446217E-09  0.144E-04    4.87     185.5  T
     SCC iter.                  ...        0 min,  0.157 sec
     gradient                   ...        0 min,  0.008 sec
 * total energy  :   -21.2032070 Eh     change       -0.2057785E-03 Eh
   gradient norm :     0.0080855 Eh/α   predicted    -0.1523015E-03 ( -25.99%)
   displ. norm   :     0.2236459 α      lambda       -0.2707960E-03
   maximum displ.:     0.1508393 α      in ANC's #5, #1, #3, ...

........................................................................
.............................. CYCLE    6 ..............................
........................................................................

 iter      E             dE          RMSdq      gap      omega  full diag
   1    -21.4932715 -0.214933E+02  0.190E-01    4.87       0.0  T
   2    -21.4932753 -0.387213E-05  0.112E-01    4.87       1.0  T
   3    -21.4932766 -0.121791E-05  0.103E-02    4.86       2.6  T
   4    -21.4932767 -0.120210E-06  0.643E-03    4.87       4.2  T
   5    -21.4932768 -0.118652E-06  0.279E-03    4.87       9.6  T
   6    -21.4932769 -0.795664E-07  0.475E-04    4.87      56.3  T
   7    -21.4932769 -0.353651E-09  0.187E-04    4.87     143.0  T
     SCC iter.                  ...        0 min,  0.133 sec
     gradient                   ...        0 min,  0.008 sec
 * total energy  :   -21.2034066 Eh     change       -0.1995953E-03 Eh
   gradient norm :     0.0100498 Eh/α   predicted    -0.1421708E-03 ( -28.77%)
   displ. norm   :     0.2547479 α      lambda       -0.2716840E-03
   maximum displ.:     0.1786796 α      in ANC's #1, #5, #3, ...

........................................................................
.............................. CYCLE    7 ..............................
........................................................................

 iter      E             dE          RMSdq      gap      omega  full diag
   1    -21.4926076 -0.214926E+02  0.237E-01    4.87       0.0  T
   2    -21.4926140 -0.649627E-05  0.138E-01    4.87       1.0  T
   3    -21.4926163 -0.225276E-05  0.126E-02    4.87       2.1  T
   4    -21.4926160  0.289542E-06  0.921E-03    4.87       2.9  T
   5    -21.4926167 -0.705382E-06  0.110E-03    4.87      24.4  T
   6    -21.4926167 -0.403462E-08  0.483E-04    4.87      55.4  T
   7    -21.4926167 -0.446914E-09  0.129E-04    4.87     207.2  T
     SCC iter.                  ...        0 min,  0.142 sec
     gradient                   ...        0 min,  0.004 sec
 * total energy  :   -21.2036003 Eh     change       -0.1937816E-03 Eh
   gradient norm :     0.0102290 Eh/α   predicted    -0.1446580E-03 ( -25.35%)
   displ. norm   :     0.1970870 α      lambda       -0.2638003E-03
   maximum displ.:     0.1399973 α      in ANC's #1, #5, #3, ...

........................................................................
.............................. CYCLE    8 ..............................
........................................................................

 iter      E             dE          RMSdq      gap      omega  full diag
   1    -21.4953586 -0.214954E+02  0.192E-01    4.88       0.0  T
   2    -21.4953632 -0.462359E-05  0.111E-01    4.88       1.0  T
   3    -21.4953632  0.485704E-07  0.154E-02    4.88       1.7  T
   4    -21.4953649 -0.173397E-05  0.778E-03    4.88       3.4  T
   5    -21.4953651 -0.191283E-06  0.268E-03    4.88      10.0  T
   6    -21.4953651 -0.417582E-07  0.456E-04    4.88      58.6  T
   7    -21.4953651 -0.339782E-09  0.226E-04    4.88     118.4  T
     SCC iter.                  ...        0 min,  0.118 sec
     gradient                   ...        0 min,  0.003 sec
 * total energy  :   -21.2037896 Eh     change       -0.1892323E-03 Eh
   gradient norm :     0.0053433 Eh/α   predicted    -0.1370261E-03 ( -27.59%)
   displ. norm   :     0.2343682 α      lambda       -0.1754803E-03
   maximum displ.:     0.1792478 α      in ANC's #1, #5, #3, ...

........................................................................
.............................. CYCLE    9 ..............................
........................................................................

 iter      E             dE          RMSdq      gap      omega  full diag
   1    -21.4953014 -0.214953E+02  0.261E-01    4.86       0.0  T
   2    -21.4953104 -0.894329E-05  0.149E-01    4.87       1.0  T
   3    -21.4953138 -0.342184E-05  0.116E-02    4.87       2.3  T
   4    -21.4953138  0.199488E-07  0.369E-03    4.87       7.2  T
   5    -21.4953138 -0.404186E-07  0.197E-03    4.87      13.6  T
   6    -21.4953139 -0.387277E-07  0.498E-04    4.87      53.7  T
   7    -21.4953139 -0.566875E-09  0.184E-04    4.87     145.1  T
     SCC iter.                  ...        0 min,  0.108 sec
     gradient                   ...        0 min,  0.002 sec
 * total energy  :   -21.2039025 Eh     change       -0.1129745E-03 Eh
   gradient norm :     0.0087104 Eh/α   predicted    -0.9255934E-04 ( -18.07%)
   displ. norm   :     0.1865666 α      lambda       -0.1623108E-03
   maximum displ.:     0.1232031 α      in ANC's #1, #5, #22, ...

........................................................................
.............................. CYCLE   10 ..............................
........................................................................

 iter      E             dE          RMSdq      gap      omega  full diag
   1    -21.4999292 -0.214999E+02  0.164E-01    4.91       0.0  T
   2    -21.4999320 -0.274310E-05  0.968E-02    4.90       1.0  T
   3    -21.4999231  0.885394E-05  0.305E-02    4.91       1.0  T
   4    -21.4999337 -0.105972E-04  0.606E-03    4.90       4.4  T
   5    -21.4999338 -0.588791E-07  0.224E-03    4.90      11.9  T
   6    -21.4999338 -0.126192E-07  0.411E-04    4.90      65.0  T
   7    -21.4999338 -0.348596E-09  0.192E-04    4.90     138.9  T
     SCC iter.                  ...        0 min,  0.116 sec
     gradient                   ...        0 min,  0.001 sec
 * total energy  :   -21.2039704 Eh     change       -0.6780698E-04 Eh
   gradient norm :     0.0076107 Eh/α   predicted    -0.8398121E-04 (  23.85%)
   displ. norm   :     0.2234362 α      lambda       -0.9447262E-04
   maximum displ.:     0.1749306 α      in ANC's #1, #5, #8, ...

........................................................................
.............................. CYCLE   11 ..............................
........................................................................

 iter      E             dE          RMSdq      gap      omega  full diag
   1    -21.4963452 -0.214963E+02  0.253E-01    4.88       0.0  T
   2    -21.4963535 -0.820875E-05  0.144E-01    4.88       1.0  T
   3    -21.4963539 -0.437192E-06  0.188E-02    4.88       1.4  T
   4    -21.4963566 -0.274729E-05  0.903E-03    4.88       3.0  T
   5    -21.4963569 -0.252634E-06  0.162E-03    4.88      16.5  T
   6    -21.4963569 -0.840161E-08  0.512E-04    4.88      52.2  T
   7    -21.4963569 -0.205091E-09  0.150E-04    4.88     178.2  T
     SCC iter.                  ...        0 min,  0.120 sec
     gradient                   ...        0 min,  0.001 sec
 * total energy  :   -21.2040141 Eh     change       -0.4378056E-04 Eh
   gradient norm :     0.0054095 Eh/α   predicted    -0.4959462E-04 (  13.28%)
   displ. norm   :     0.0391855 α      lambda       -0.5005963E-04
   maximum displ.:     0.0356552 α      in ANC's #5, #3, #12, ...

........................................................................
.............................. CYCLE   12 ..............................
........................................................................

 iter      E             dE          RMSdq      gap      omega  full diag
   1    -21.4975128 -0.214975E+02  0.543E-02    4.86       0.0  T
   2    -21.4975134 -0.638314E-06  0.318E-02    4.86       1.0  T
   3    -21.4975125  0.936051E-06  0.974E-03    4.87       2.7  T
   4    -21.4975136 -0.111730E-05  0.273E-03    4.87       9.8  T
   5    -21.4975136 -0.452565E-07  0.802E-04    4.87      33.3  T
   6    -21.4975136 -0.417170E-09  0.315E-04    4.87      84.9  T
     SCC iter.                  ...        0 min,  0.112 sec
     gradient                   ...        0 min,  0.001 sec
 * total energy  :   -21.2040126 Eh     change        0.1574966E-05 Eh
   gradient norm :     0.0081150 Eh/α   predicted    -0.2506796E-04 (*******%)
   displ. norm   :     0.0416434 α      lambda       -0.5359688E-04
   maximum displ.:     0.0357519 α      in ANC's #5, #1, #2, ...

........................................................................
.............................. CYCLE   13 ..............................
........................................................................

 iter      E             dE          RMSdq      gap      omega  full diag
   1    -21.4980764 -0.214981E+02  0.393E-02    4.89       0.0  T
   2    -21.4980767 -0.318003E-06  0.233E-02    4.89       1.1  T
   3    -21.4980767  0.531918E-08  0.339E-03    4.89       7.9  T
   4    -21.4980768 -0.527713E-07  0.181E-03    4.89      14.7  T
   5    -21.4980768 -0.281451E-07  0.567E-04    4.89      47.2  T
   6    -21.4980768 -0.625771E-09  0.240E-04    4.89     111.3  T
     SCC iter.                  ...        0 min,  0.154 sec
     gradient                   ...        0 min,  0.006 sec
 * total energy  :   -21.2040418 Eh     change       -0.2928804E-04 Eh
   gradient norm :     0.0010270 Eh/α   predicted    -0.2684443E-04 (  -8.34%)
   displ. norm   :     0.1244720 α      lambda       -0.1163343E-04
   maximum displ.:     0.0922404 α      in ANC's #1, #5, #8, ...

........................................................................
.............................. CYCLE   14 ..............................
........................................................................

 iter      E             dE          RMSdq      gap      omega  full diag
   1    -21.4969510 -0.214970E+02  0.140E-01    4.88       0.0  T
   2    -21.4969532 -0.222001E-05  0.801E-02    4.88       1.0  T
   3    -21.4969539 -0.734221E-06  0.680E-03    4.88       3.9  T
   4    -21.4969539  0.112912E-07  0.480E-03    4.88       5.6  T
   5    -21.4969540 -0.150430E-06  0.118E-03    4.88      22.6  T
   6    -21.4969541 -0.917112E-08  0.290E-04    4.88      92.0  T
   7    -21.4969541 -0.107121E-09  0.118E-04    4.88     225.7  T
     SCC iter.                  ...        0 min,  0.107 sec
     gradient                   ...        0 min,  0.003 sec
 * total energy  :   -21.2040463 Eh     change       -0.4482423E-05 Eh
   gradient norm :     0.0025360 Eh/α   predicted    -0.5856656E-05 (  30.66%)
   displ. norm   :     0.0172295 α      lambda       -0.8163232E-05
   maximum displ.:     0.0113001 α      in ANC's #1, #5, #2, ...

........................................................................
.............................. CYCLE   15 ..............................
........................................................................

 iter      E             dE          RMSdq      gap      omega  full diag
   1    -21.4977128 -0.214977E+02  0.187E-02    4.89       0.0  T
   2    -21.4977128 -0.549764E-07  0.108E-02    4.89       2.5  T
   3    -21.4977127  0.138402E-06  0.384E-03    4.89       7.0  T
   4    -21.4977129 -0.174116E-06  0.694E-04    4.89      38.5  T
   5    -21.4977129 -0.803091E-09  0.218E-04    4.89     122.7  T
     SCC iter.                  ...        0 min,  0.099 sec
     gradient                   ...        0 min,  0.002 sec
 * total energy  :   -21.2040518 Eh     change       -0.5443884E-05 Eh
   gradient norm :     0.0007729 Eh/α   predicted    -0.4083785E-05 ( -24.98%)
   displ. norm   :     0.0119174 α      lambda       -0.2383552E-05
   maximum displ.:     0.0085229 α      in ANC's #2, #6, #24, ...

........................................................................
.............................. CYCLE   16 ..............................
........................................................................

 iter      E             dE          RMSdq      gap      omega  full diag
   1    -21.4981544 -0.214982E+02  0.249E-02    4.89       0.0  T
   2    -21.4981545 -0.958002E-07  0.139E-02    4.89       1.9  T
   3    -21.4981545  0.452616E-07  0.269E-03    4.89       9.9  T
   4    -21.4981546 -0.871468E-07  0.624E-04    4.89      42.8  T
   5    -21.4981546 -0.130211E-08  0.221E-04    4.89     121.1  T
     SCC iter.                  ...        0 min,  0.100 sec
     gradient                   ...        0 min,  0.001 sec
 * total energy  :   -21.2040530 Eh     change       -0.1270931E-05 Eh
   gradient norm :     0.0005807 Eh/α   predicted    -0.1189721E-05 (  -6.39%)
   displ. norm   :     0.0034614 α      lambda       -0.4504629E-06
   maximum displ.:     0.0025821 α      in ANC's #5, #3, #9, ...

........................................................................
.............................. CYCLE   17 ..............................
........................................................................

 iter      E             dE          RMSdq      gap      omega  full diag
   1    -21.4980778 -0.214981E+02  0.398E-03    4.89       0.0  T
   2    -21.4980778 -0.527443E-08  0.235E-03    4.89      11.4  T
   3    -21.4980778  0.378536E-08  0.677E-04    4.89      39.5  T
   4    -21.4980778 -0.460968E-08  0.242E-04    4.89     110.3  T
     SCC iter.                  ...        0 min,  0.101 sec
     gradient                   ...        0 min,  0.001 sec
 * total energy  :   -21.2040534 Eh     change       -0.3410600E-06 Eh
   gradient norm :     0.0003471 Eh/α   predicted    -0.2264817E-06 ( -33.59%)
   displ. norm   :     0.0016685 α      lambda       -0.1262927E-06
   maximum displ.:     0.0009875 α      in ANC's #2, #5, #9, ...

........................................................................
.............................. CYCLE   18 ..............................
........................................................................

 iter      E             dE          RMSdq      gap      omega  full diag
   1    -21.4979336 -0.214979E+02  0.241E-03    4.89       0.0  T
   2    -21.4979336 -0.122252E-08  0.141E-03    4.89      19.0  T
   3    -21.4979336  0.451814E-08  0.707E-04    4.89      37.8  T
   4    -21.4979336 -0.538549E-08  0.114E-04    4.89     234.3  T
     SCC iter.                  ...        0 min,  0.101 sec
     gradient                   ...        0 min,  0.001 sec
 * total energy  :   -21.2040534 Eh     change       -0.5897166E-07 Eh
   gradient norm :     0.0001147 Eh/α   predicted    -0.6191024E-07 (   4.98%)
   displ. norm   :     0.0032801 α      lambda       -0.4012012E-07
   maximum displ.:     0.0024522 α      in ANC's #1, #5, #4, ...

   *** GEOMETRY OPTIMIZATION CONVERGED AFTER 18 ITERATIONS ***

------------------------------------------------------------------------
 total energy gain   :        -0.0040520 Eh       -2.5427 kcal/mol
 total RMSD          :         0.5174087 a0        0.2738 Å
 total power (kW/mol):        -0.5910318 (step)   -4.7486 (real)
------------------------------------------------------------------------

 ANCopt (total)                0 d,  0 h,  0 min,  2.240 sec
 optimizer setup                ...        0 min,  0.000 sec (  0.006%)
 model hessian                  ...        0 min,  0.006 sec (  0.247%)
 ANC generation                 ...        0 min,  0.000 sec (  0.014%)
 coordinate transformation      ...        0 min,  0.000 sec (  0.010%)
 single point calculation       ...        0 min,  2.224 sec ( 99.258%)
 optimization log               ...        0 min,  0.002 sec (  0.077%)
 hessian update                 ...        0 min,  0.005 sec (  0.230%)
 rational function              ...        0 min,  0.002 sec (  0.111%)

================
 final structure:
================
14
 xtb: 6.7.0 (08769fc)
C            0.52856148276570       -1.85556476019564        0.18999170131746
C            0.90899178282487       -0.58477222881557       -0.54442237110586
C            1.71546149379425        0.45984961487054        0.24190380179449
O            0.70224383428351        1.45400267553924        0.04717995433755
C           -0.15803724038512        0.53608941040956       -0.64112565448984
C           -1.40034435988333        0.29290630113906        0.05855935838904
N           -2.37622402546310        0.10044242962223        0.62328219596649
H            1.41275500387672       -2.47363932832226        0.33129067680462
H           -0.20409408744707       -2.41981759688360       -0.38385355867610
H            0.10040405668259       -1.62923504726875        1.16467732953264
H            1.34136475154082       -0.82010435706674       -1.51817199786232
H            2.66750875311414        0.76925843613616       -0.19580317402574
H            1.85107548816022        0.23021791908130        1.30273509065091
H           -0.39269528786420        0.88375674975447       -1.65700784553338
 
 Bond Distances (Angstroems)
 ---------------------------
C1-C2=1.5162         C1-H8=1.0880         C1-H9=1.0883         C1-H10=1.0884        C2-C1=1.5162         C2-C3=1.5362         
C2-C5=1.5506         C2-H11=1.0911        C3-C2=1.5362         C3-O4=1.4328         C3-H12=1.0926        C3-H13=1.0938        
O4-C3=1.4328         O4-C5=1.4340         C5-C2=1.5506         C5-O4=1.4340         C5-C6=1.4464         C5-H14=1.0991        
C6-C5=1.4464         C6-N7=1.1438         N7-C6=1.1438         H8-C1=1.0880         H9-C1=1.0883         H10-C1=1.0884        
H11-C2=1.0911        H12-C3=1.0926        H13-C3=1.0938        H14-C5=1.0991        
 C  H  Rav=1.0916 sigma=0.0037  Rmin=1.0880  Rmax=1.0991     7
 C  C  Rav=1.5123 sigma=0.0400  Rmin=1.4464  Rmax=1.5506     4
 N  C  Rav=1.1438 sigma=0.0000  Rmin=1.1438  Rmax=1.1438     1
 O  C  Rav=1.4334 sigma=0.0006  Rmin=1.4328  Rmax=1.4340     2
 
 selected bond angles (degree)
 --------------------
H8-C1-C2=109.58                H9-C1-C2=110.37                H9-C1-H8=108.73                H10-C1-C2=110.99               
H10-C1-H8=108.76               H10-C1-H9=108.37               C3-C2-C1=116.98                C5-C2-C1=117.61                
C5-C2-C3= 84.35                H11-C2-C1=110.54               H11-C2-C3=113.29               H11-C2-C5=111.90               
O4-C3-C2= 91.78                H12-C3-C2=116.42               H12-C3-O4=111.42               H13-C3-C2=114.76               
H13-C3-O4=111.42               H13-C3-H12=109.87              C5-O4-C3= 92.60                O4-C5-C2= 91.14                
C6-C5-C2=116.06                C6-C5-O4=113.00                H14-C5-C2=115.67               H14-C5-O4=111.67               
H14-C5-C6=108.48               N7-C6-C5=179.34                
 
 selected dihedral angles (degree)
 ---------------------------------
C3-C2-C1-H8=287.96            C3-C2-C1-H9=168.25            C3-C2-C1-H10= 48.09           C5-C2-C1-H8=189.81            
C5-C2-C1-H9= 70.11            C5-C2-C1-H10=309.94           H11-C2-C1-H8= 59.61           H11-C2-C1-H9=299.91           
H11-C2-C1-H10=179.74          O4-C3-C2-C1=239.22            O4-C3-C2-C5=357.39            O4-C3-C2-H11=108.83           
H12-C3-C2-C1=124.16           H12-C3-C2-C5=242.34           H12-C3-C2-H11=353.78          H13-C3-C2-C1=353.84           
H13-C3-C2-C5=112.01           H13-C3-C2-H11=223.45          C5-O4-C3-C2=  2.81            C5-O4-C3-H12=122.17           
C5-O4-C3-H13=245.28           O4-C5-C2-C1=120.17            O4-C5-C2-C3=  2.60            O4-C5-C2-H11=249.74           
C6-C5-C2-C1=  3.76            C6-C5-C2-C3=246.19            C6-C5-C2-H11=133.33           H14-C5-C2-C1=234.97           
H14-C5-C2-C3=117.40           H14-C5-C2-H11=  4.53          C2-C5-O4-C3=357.22            C6-C5-O4-C3=116.29            
H14-C5-O4-C3=238.91           N7-C6-C5-C2= 63.39            N7-C6-C5-O4=319.99            N7-C6-C5-H14=195.61           
           -------------------------------------------------
          |                Final Singlepoint                |
           -------------------------------------------------

          ...................................................
          :                      SETUP                      :
          :.................................................:
          :  # basis functions                  35          :
          :  # atomic orbitals                  35          :
          :  # shells                           21          :
          :  # electrons                        38          :
          :  max. iterations                  4000          :
          :  Hamiltonian                  GFN2-xTB          :
          :  restarted?                      false          :
          :  GBSA solvation                   true          :
          :  PC potential                    false          :
          :  electronic temp.          300.0000000     K    :
          :  accuracy                    1.0000000          :
          :  -> integral cutoff          0.2500000E+02      :
          :  -> integral neglect         0.1000000E-07      :
          :  -> SCF convergence          0.1000000E-05 Eh   :
          :  -> wf. convergence          0.1000000E-03 e    :
          :  Broyden damping             0.4000000          :
          :  net charge                          0          :
          :  unpaired electrons                  0          :
          ...................................................

 iter      E             dE          RMSdq      gap      omega  full diag
   1    -21.4979336 -0.214979E+02  0.464E-05    4.89       0.0  T
   2    -21.4979336 -0.232347E-11  0.266E-05    4.89    1003.8  T
   3    -21.4979336  0.248690E-13  0.108E-05    4.89    2463.5  T

   *** convergence criteria satisfied after 3 iterations ***

         #    Occupation            Energy/Eh            Energy/eV
      -------------------------------------------------------------
         1        2.0000           -0.7258551             -19.7515
       ...           ...                  ...                  ...
        13        2.0000           -0.4944543             -13.4548
        14        2.0000           -0.4911732             -13.3655
        15        2.0000           -0.4788526             -13.0302
        16        2.0000           -0.4598919             -12.5143
        17        2.0000           -0.4527308             -12.3194
        18        2.0000           -0.4469588             -12.1624
        19        2.0000           -0.4155865             -11.3087 (HOMO)
        20                         -0.2359962              -6.4218 (LUMO)
        21                         -0.2245434              -6.1101
        22                         -0.0245966              -0.6693
        23                         -0.0109617              -0.2983
        24                          0.0618496               1.6830
       ...                                ...                  ...
        35                          1.1205405              30.4915
      -------------------------------------------------------------
                  HL-Gap            0.1795902 Eh            4.8869 eV
             Fermi-level           -0.3257914 Eh           -8.8652 eV

 SCC (total)                   0 d,  0 h,  0 min,  0.101 sec
 SCC setup                      ...        0 min,  0.000 sec (  0.161%)
 Dispersion                     ...        0 min,  0.000 sec (  0.040%)
 classical contributions        ...        0 min,  0.000 sec (  0.010%)
 integral evaluation            ...        0 min,  0.000 sec (  0.424%)
 iterations                     ...        0 min,  0.099 sec ( 97.987%)
 molecular gradient             ...        0 min,  0.001 sec (  1.248%)
 printout                       ...        0 min,  0.000 sec (  0.095%)

         :::::::::::::::::::::::::::::::::::::::::::::::::::::
         ::                     SUMMARY                     ::
         :::::::::::::::::::::::::::::::::::::::::::::::::::::
         :: total energy             -21.204053446635 Eh    ::
         :: total w/o Gsasa/hb       -21.195545083419 Eh    ::
         :: gradient norm              0.000115412354 Eh/a0 ::
         :: HOMO-LUMO gap              4.886898915189 eV    ::
         ::.................................................::
         :: SCC energy               -21.497915094786 Eh    ::
         :: -> isotropic ES            0.029494353447 Eh    ::
         :: -> anisotropic ES          0.003633569239 Eh    ::
         :: -> anisotropic XC          0.019325712738 Eh    ::
         :: -> dispersion             -0.008777614923 Eh    ::
         :: -> Gsolv                  -0.010476117159 Eh    ::
         ::    -> Gelec               -0.001967753943 Eh    ::
         ::    -> Gsasa               -0.010716506355 Eh    ::
         ::    -> Ghb                  0.000000000000 Eh    ::
         ::    -> Gshift               0.002208143139 Eh    ::
         :: repulsion energy           0.293861648152 Eh    ::
         :: add. restraining           0.000000000000 Eh    ::
         :: total charge               0.000000000000 e     ::
         :::::::::::::::::::::::::::::::::::::::::::::::::::::

           -------------------------------------------------
          |                Property Printout                |
           -------------------------------------------------

    * Orbital Energies and Occupations

         #    Occupation            Energy/Eh            Energy/eV
      -------------------------------------------------------------
         1        2.0000           -0.7258551             -19.7515
       ...           ...                  ...                  ...
         7        2.0000           -0.5812772             -15.8174
         8        2.0000           -0.5725852             -15.5808
         9        2.0000           -0.5601701             -15.2430
        10        2.0000           -0.5279533             -14.3663
        11        2.0000           -0.5158479             -14.0369
        12        2.0000           -0.5093026             -13.8588
        13        2.0000           -0.4944543             -13.4548
        14        2.0000           -0.4911732             -13.3655
        15        2.0000           -0.4788526             -13.0302
        16        2.0000           -0.4598919             -12.5143
        17        2.0000           -0.4527308             -12.3194
        18        2.0000           -0.4469588             -12.1624
        19        2.0000           -0.4155865             -11.3087 (HOMO)
        20                         -0.2359962              -6.4218 (LUMO)
        21                         -0.2245434              -6.1101
        22                         -0.0245966              -0.6693
        23                         -0.0109617              -0.2983
        24                          0.0618496               1.6830
        25                          0.0655528               1.7838
        26                          0.0878569               2.3907
        27                          0.1147095               3.1214
        28                          0.1464457               3.9850
        29                          0.1689617               4.5977
        30                          0.1829908               4.9794
       ...                                ...                  ...
        35                          1.1205405              30.4915
      -------------------------------------------------------------
                  HL-Gap            0.1795902 Eh            4.8869 eV
             Fermi-level           -0.3257914 Eh           -8.8652 eV

     #   Z          covCN         q      C6AA      α(0)
     1   6 C        3.751    -0.112    22.707     6.796
     2   6 C        3.888    -0.016    20.813     6.486
     3   6 C        4.014     0.080    19.181     6.222
     4   8 O        1.735    -0.327    19.459     5.956
     5   6 C        4.067     0.122    18.526     6.114
     6   6 C        1.892     0.116    28.245     8.583
     7   7 N        0.911    -0.222    25.857     7.354
     8   1 H        0.925     0.058     2.227     2.334
     9   1 H        0.925     0.052     2.290     2.367
    10   1 H        0.925     0.052     2.300     2.372
    11   1 H        0.924     0.048     2.340     2.392
    12   1 H        0.924     0.044     2.392     2.418
    13   1 H        0.924     0.047     2.361     2.403
    14   1 H        0.923     0.058     2.217     2.329

 Mol. C6AA /au·bohr⁶  :       1879.726651
 Mol. C8AA /au·bohr⁸  :      42309.086501
 Mol. α(0) /au        :         64.124994


Wiberg/Mayer (AO) data.
largest (>0.10) Wiberg bond orders for each atom

 ---------------------------------------------------------------------------
     #   Z sym  total        # sym  WBO       # sym  WBO       # sym  WBO
 ---------------------------------------------------------------------------
     1   6 C    3.992 --     2 C    1.020    10 H    0.984     9 H    0.982
                             8 H    0.981
     2   6 C    3.984 --     1 C    1.020     3 C    0.991    11 H    0.972
                             5 C    0.945
     3   6 C    3.943 --     2 C    0.991    12 H    0.975    13 H    0.973
                             4 O    0.971
     4   8 O    2.035 --     3 C    0.971     5 C    0.959
     5   6 C    3.954 --     6 C    1.030     4 O    0.959     2 C    0.945
                            14 H    0.939
     6   6 C    3.942 --     7 N    2.858     5 C    1.030
     7   7 N    3.011 --     6 C    2.858
     8   1 H    0.997 --     1 C    0.981
     9   1 H    0.997 --     1 C    0.982
    10   1 H    0.997 --     1 C    0.984
    11   1 H    0.998 --     2 C    0.972
    12   1 H    0.998 --     3 C    0.975
    13   1 H    0.998 --     3 C    0.973
    14   1 H    0.997 --     5 C    0.939
 ---------------------------------------------------------------------------

Topologies differ in total number of bonds
Writing topology from bond orders to xtbtopo.mol

molecular dipole:
                 x           y           z       tot (Debye)
 q only:        0.949      -0.832      -0.524
   full:        1.341      -0.757      -0.808       4.419
molecular quadrupole (traceless):
                xx          xy          yy          xz          yz          zz
 q only:       -1.584      -1.626      -0.590       2.236      -0.790       2.174
  q+dip:       -3.565      -1.522      -1.536       2.412      -1.518       5.101
   full:       -4.368      -1.975      -0.160       3.910      -1.094       4.528

           -------------------------------------------------
          |                Geometry Summary                 |
           -------------------------------------------------

      molecular mass/u    :       97.1153729
   center of mass at/Å    :        0.0405215       0.0549539       0.0017780
  moments of inertia/u·Å² :        0.1241952E+03   0.1976127E+03   0.2793691E+03
rotational constants/cm⁻¹ :        0.1357350E+00   0.8530641E-01   0.6034180E-01

 * 14 selected distances

     #   Z          #   Z                                           value/Å
     1   6 C        2   6 C                                       1.5162471
     2   6 C        3   6 C                                       1.5362088
     3   6 C        4   8 O                                       1.4327833
     2   6 C        5   6 C                                       1.5505592 (max)
     4   8 O        5   6 C                                       1.4340200
     5   6 C        6   6 C                                       1.4463833
     6   6 C        7   7 N                                       1.1438075
     1   6 C        8   1 H                                       1.0880165 (min)
     1   6 C        9   1 H                                       1.0883309
     1   6 C       10   1 H                                       1.0883732
     2   6 C       11   1 H                                       1.0911078
     3   6 C       12   1 H                                       1.0925728
     3   6 C       13   1 H                                       1.0938396
     5   6 C       14   1 H                                       1.0990695

 * 4 distinct bonds (by element types)

   Z      Z             #   av. dist./Å        max./Å        min./Å
   1 H    6 C           7     1.0916158     1.0990695     1.0880165
   6 C    6 C           4     1.5123496     1.5505592     1.4463833
   6 C    7 N           1     1.1438075     1.1438075     1.1438075
   6 C    8 O           2     1.4334017     1.4340200     1.4327833


optimized geometry written to: xtbopt.xyz


           -------------------------------------------------
          | TOTAL ENERGY              -21.204053446635 Eh   |
          | GRADIENT NORM               0.000115412354 Eh/α |
          | HOMO-LUMO GAP               4.886898915189 eV   |
           -------------------------------------------------

------------------------------------------------------------------------
 * finished run on 2024/08/07 at 20:25:13.219     
------------------------------------------------------------------------
 total:
 * wall-time:     0 d,  0 h,  0 min,  2.467 sec
 *  cpu-time:     0 d,  0 h,  0 min, 17.392 sec
 * ratio c/w:     7.050 speedup
 SCF:
 * wall-time:     0 d,  0 h,  0 min,  0.114 sec
 *  cpu-time:     0 d,  0 h,  0 min,  0.884 sec
 * ratio c/w:     7.725 speedup
 ANC optimizer:
 * wall-time:     0 d,  0 h,  0 min,  2.343 sec
 *  cpu-time:     0 d,  0 h,  0 min, 16.448 sec
 * ratio c/w:     7.021 speedup

