14
 energy: -21.204053446635 gnorm: 0.000115412354 xtb: 6.7.0 (08769fc)
C            0.52856148276570       -1.85556476019564        0.18999170131746
C            0.90899178282487       -0.58477222881557       -0.54442237110586
C            1.71546149379425        0.45984961487054        0.24190380179449
O            0.70224383428351        1.45400267553924        0.04717995433755
C           -0.15803724038512        0.53608941040956       -0.64112565448984
C           -1.40034435988333        0.29290630113906        0.05855935838904
N           -2.37622402546310        0.10044242962223        0.62328219596649
H            1.41275500387672       -2.47363932832226        0.33129067680462
H           -0.20409408744707       -2.41981759688360       -0.38385355867610
H            0.10040405668259       -1.62923504726875        1.16467732953264
H            1.34136475154082       -0.82010435706674       -1.51817199786232
H            2.66750875311414        0.76925843613616       -0.19580317402574
H            1.85107548816022        0.23021791908130        1.30273509065091
H           -0.39269528786420        0.88375674975447       -1.65700784553338
