14
 energy: -21.200001428470 gnorm: 0.056907810743 xtb: 6.7.0 (08769fc)
C            0.51979589260000       -1.82032397270000        0.28280855560000
C            0.88737183360000       -0.60174992750000       -0.55028378850000
C            1.79150317910000        0.43138998710000        0.17534508420000
O            0.65240858810000        1.27357060800000        0.42880145480000
C           -0.17291081970000        0.55843951350000       -0.54127359010000
C           -1.50155824670000        0.23603726910000       -0.12653331230000
N           -2.56187397070000       -0.06418326900000        0.22476159270000
H            1.37581561700000       -2.48132922950000        0.42223126450000
H           -0.28033936520000       -2.39304620600000       -0.18761150380000
H            0.16838738060000       -1.51569040650000        1.26883830500000
H            1.23927261760000       -0.85741768180000       -1.56105343780000
H            2.52216904420000        0.95495319940000       -0.45948478240000
H            2.22857930330000        0.07950440400000        1.12094406340000
H           -0.17164940780000        1.14323592990000       -1.47825439820000
14
 energy: -21.202190003897 gnorm: 0.020055094400 xtb: 6.7.0 (08769fc)
C            0.51932687598965       -1.80890493958334        0.27376554029565
C            0.89236910846944       -0.59699869088785       -0.55435983761587
C            1.77411787514727        0.42444934805148        0.19245590689319
O            0.65333732332618        1.29804714028736        0.40982630265907
C           -0.16063814206308        0.55371947988697       -0.53137450702277
C           -1.48739206561375        0.24616113931263       -0.08435346287204
N           -2.54520676968563       -0.06854756636187        0.21314084684446
H            1.38484643116667       -2.45829774046986        0.39674337059719
H           -0.27654247873633       -2.37531312012923       -0.20842393170684
H            0.17098932170766       -1.50309133868768        1.26012355872951
H            1.22942900798745       -0.87411876017426       -1.55724808132081
H            2.52286060328292        0.91253433246634       -0.43905583276292
H            2.21528408186845        0.09159969925238        1.13457979501777
H           -0.19580952684690        1.10215123503692       -1.48658416063558
14
 energy: -21.202515522652 gnorm: 0.014643633926 xtb: 6.7.0 (08769fc)
C            0.51869664818907       -1.80917662460716        0.26438926547859
C            0.89681915873005       -0.59167459407535       -0.55263515479343
C            1.76070916255827        0.42508715711484        0.20529701850646
O            0.64136426404550        1.30588745867254        0.38711991531297
C           -0.15155503465675        0.55048037494131       -0.54733770822134
C           -1.48542529028150        0.22636533423210       -0.11674196439021
N           -2.51858578137894       -0.03233889712803        0.29289453001408
H            1.38960748349241       -2.45085209691041        0.38181481355457
H           -0.27069748645306       -2.37273528919581       -0.22954180874084
H            0.16571150692830       -1.50918456081013        1.24984602030706
H            1.24032701801669       -0.87837692018428       -1.54477578559173
H            2.52983976648876        0.89827928667083       -0.41093890481189
H            2.19193576752457        0.10116782051913        1.15074040264167
H           -0.21177553720336        1.08046176876042       -1.51089513216598
14
 energy: -21.203001186452 gnorm: 0.008280489729 xtb: 6.7.0 (08769fc)
C            0.51771046218191       -1.81298064977605        0.26194946112027
C            0.89671644072640       -0.58803198479323       -0.54917155188135
C            1.76300004891873        0.42693937058022        0.20380103658778
O            0.64817243798680        1.31484641888416        0.36543467494536
C           -0.14892669631736        0.55280043938509       -0.55140235995593
C           -1.47817329673463        0.23991114541282       -0.08416062025705
N           -2.52209137283041       -0.03680974872233        0.28691482510170
H            1.38897868615084       -2.45390115303365        0.37843532561417
H           -0.26882466373294       -2.37562972440848       -0.23685050278170
H            0.16111791217909       -1.52044907291589        1.24768152778848
H            1.24769867622858       -0.87689794618747       -1.53727949643977
H            2.54550373634469        0.89405555355056       -0.40316169618875
H            2.18026625068714        0.10686380781918        1.15755495392945
H           -0.23417697578884        1.07267376220506       -1.52051007048267
14
 energy: -21.203206964983 gnorm: 0.008085887756 xtb: 6.7.0 (08769fc)
C            0.51750285143323       -1.81704497804578        0.25580813906173
C            0.89933850579235       -0.58630269080020       -0.55017585516932
C            1.76263573698414        0.43091234578498        0.20621934873178
O            0.65418536092025        1.33262693821264        0.33530192084284
C           -0.14818378053838        0.55225062435889       -0.55862533787944
C           -1.47204931710141        0.24432276273504       -0.06332389516212
N           -2.51850485629181       -0.02974007329941        0.31351981780668
H            1.38779023930565       -2.45877231403436        0.37477977845214
H           -0.26555521324200       -2.37783852874770       -0.25061801463636
H            0.15378166393032       -1.53309819909339        1.24157540786934
H            1.26251219186716       -0.87261949919806       -1.53696378960599
H            2.56403124425247        0.88530308167485       -0.38952240734259
H            2.15405450771724        0.11694765999954        1.17633558940634
H           -0.25456748902922        1.05644308845296       -1.53507519527503
14
 energy: -21.203406560275 gnorm: 0.010051443190 xtb: 6.7.0 (08769fc)
C            0.51786479337039       -1.82365706889688        0.24599889186595
C            0.90225277014405       -0.58440742964829       -0.54888230208033
C            1.76048712497355        0.43721732664597        0.21103161468613
O            0.66219590475949        1.35952009553586        0.28962055049123
C           -0.14846636656489        0.55109761548190       -0.57051352933635
C           -1.46263421428469        0.24746528345390       -0.03925123258230
N           -2.50474835150604       -0.01518618570008        0.35823725765826
H            1.38768528782356       -2.46560206235353        0.36793849389892
H           -0.26011454095072       -2.38134223037081       -0.27210382312685
H            0.14410338508964       -1.55019544651546        1.23119982145640
H            1.27954509096935       -0.86363848415750       -1.53441972931288
H            2.59014800617820        0.86919020260604       -0.36580885623292
H            2.11218827977560        0.13260034572034        1.20315462080527
H           -0.28353552377750        1.03032825619853       -1.55696627109055
14
 energy: -21.203600341866 gnorm: 0.010234084600 xtb: 6.7.0 (08769fc)
C            0.51945274787844       -1.83080699754945        0.23431885075617
C            0.90512125266351       -0.58387105258622       -0.54659930784842
C            1.75599491134964        0.44362011863444        0.21723148251287
O            0.67119501364273        1.38757371239041        0.23767013182180
C           -0.15019240399119        0.54828816186945       -0.58425191437020
C           -1.45117822737443        0.25076016294446       -0.01600792261664
N           -2.48594088214951        0.00633618198143        0.41139795981402
H            1.38987699557068       -2.47141509184080        0.35943364312568
H           -0.25195492868425       -2.38593157683959       -0.29669077773503
H            0.13449359718098       -1.56777301175138        1.21834755984320
H            1.29512043576802       -0.85160727368670       -1.53154339284588
H            2.61500915084856        0.84844035580406       -0.33505123797992
H            2.06225584006308        0.15197266060933        1.23058664613995
H           -0.31228185676625        0.99780386802054       -1.57960621351761
14
 energy: -21.203789574186 gnorm: 0.005348404776 xtb: 6.7.0 (08769fc)
C            0.52202223761551       -1.83608113783226        0.22501353119731
C            0.90636179164551       -0.58473811693503       -0.54446235191523
C            1.75006496436657        0.44776001077210        0.22205635149087
O            0.67868531348199        1.40479648193207        0.19768112970044
C           -0.15293162117112        0.54542241261919       -0.59451760116283
C           -1.44093810253212        0.25539000323154        0.00020524207988
N           -2.46782420264683        0.02760645795515        0.45116208511553
H            1.39418305481135       -2.47379226850538        0.35293343886406
H           -0.24307614701823       -2.39121732253327       -0.31482099719375
H            0.12860039629456       -1.58021482893098        1.20762454319215
H            1.30369348284384       -0.84113418090823       -1.52931398168559
H            2.62885133289926        0.83030542473999       -0.30747949168902
H            2.02065055518957        0.16849959391684        1.24706461749575
H           -0.33137140977987        0.97078768847825       -1.59391100838960
14
 energy: -21.203902548663 gnorm: 0.008714904995 xtb: 6.7.0 (08769fc)
C            0.52574048853895       -1.84083591753863        0.21349815254146
C            0.90821873287353       -0.58456672895046       -0.54413211451248
C            1.73955772556296        0.45093837881962        0.22962722514800
O            0.68289456426014        1.42100834003454        0.15373441665152
C           -0.15536451622489        0.54176670727908       -0.60852738758392
C           -1.43039120844714        0.26278131992836        0.01593135647405
N           -2.44649847871341        0.05645084078112        0.50432996119878
H            1.40217356793492       -2.47214348922005        0.34373601494866
H           -0.22997843370177       -2.39917838413369       -0.33612709559642
H            0.12289637414108       -1.59363475667432        1.19446551509071
H            1.31460306367883       -0.83413773314582       -1.52559440864356
H            2.64337052235324        0.80783761130195       -0.27378448780437
H            1.97120316479122        0.18594631849947        1.26636435750255
H           -0.35145392104767        0.94115771101880       -1.61428599831500
14
 energy: -21.203970355647 gnorm: 0.007612713924 xtb: 6.7.0 (08769fc)
C            0.52879375002830       -1.84532354179101        0.20491409012181
C            0.90771158197338       -0.58442599138157       -0.54385385844472
C            1.73011596634715        0.45325087532181        0.23407057938402
O            0.69084411984402        1.43325381566896        0.11682905860386
C           -0.15790864979840        0.54047398981381       -0.61735083670587
C           -1.41976035060057        0.27497445974002        0.03504980204371
N           -2.42585035797977        0.07584732811047        0.53679004577033
H            1.40963569863216       -2.47031254607791        0.33685292780033
H           -0.21858384643812       -2.40820855905963       -0.35102638990931
H            0.11924179000366       -1.60620625603888        1.18481878503881
H            1.32012261530114       -0.82823916165261       -1.52293977371811
H            2.65269126084778        0.78868220202542       -0.24578627202103
H            1.92746720039998        0.20146386075700        1.27856683842058
H           -0.36754913256072        0.91815974256410       -1.62769948928444
14
 energy: -21.204014136202 gnorm: 0.005417134062 xtb: 6.7.0 (08769fc)
C            0.53111617799047       -1.85243471991706        0.19477983900810
C            0.90932527106216       -0.58505341435774       -0.54460454973284
C            1.72102847561605        0.45707474512525        0.23893984193423
O            0.69613244460444        1.44770203626052        0.07367945686623
C           -0.15943851405712        0.53659920026936       -0.63209784090982
C           -1.40952758741701        0.28456532668002        0.05102095787178
N           -2.40326194610487        0.10198516100271        0.58964354147490
H            1.41521157808288       -2.47206342768738        0.33136250749022
H           -0.20719657583655       -2.41812401605692       -0.37103029322141
H            0.11100035279663       -1.62237589903755        1.17265146986932
H            1.33423533078167       -0.82270485031209       -1.52056261809385
H            2.66433087891907        0.77473469577949       -0.21474182055602
H            1.87915958007312        0.21916201030070        1.29695093459216
H           -0.38514382051095        0.89432336995066       -1.64675591949305
14
 energy: -21.204012561236 gnorm: 0.008120625503 xtb: 6.7.0 (08769fc)
C            0.53048628878557       -1.85305642607447        0.19644861662634
C            0.90914321945581       -0.58613010935873       -0.54564389948922
C            1.72044985729074        0.45668460489418        0.23763976111041
O            0.69416151612917        1.44032172752921        0.07914436708787
C           -0.15857872757723        0.53545245355955       -0.63285326553235
C           -1.41018174419452        0.28526097129061        0.04469280777586
N           -2.40080938099793        0.10240215056124        0.59056769015274
H            1.41430789281843       -2.47243941598197        0.33529077679814
H           -0.20755813210279       -2.41899945656398       -0.36901217974981
H            0.10961475802728       -1.62123315932152        1.17319693666891
H            1.33495267262200       -0.82506378276148       -1.52130257004218
H            2.65682114305972        0.78252806659367       -0.21604385036553
H            1.88346141762023        0.21744570307073        1.29106794749554
H           -0.37929913493648        0.90021689056293       -1.64395763143676
14
 energy: -21.204041849275 gnorm: 0.001027491113 xtb: 6.7.0 (08769fc)
C            0.53011746521146       -1.85356477518732        0.19521782329433
C            0.90878163260775       -0.58493357258091       -0.54470089962977
C            1.71995077565558        0.45764736907391        0.23901290732465
O            0.69741329124144        1.44660753992122        0.06997600431164
C           -0.15829086534422        0.53627292208842       -0.63366160627884
C           -1.40756424824357        0.28716783080514        0.05096800665907
N           -2.39640119136442        0.09971224628176        0.59427436974824
H            1.41394332000248       -2.47292122671563        0.33338244908469
H           -0.20711257247193       -2.41821400547358       -0.37247402926583
H            0.10821985915878       -1.62361224762200        1.17184694364832
H            1.33531256237602       -0.82324361898791       -1.52025780166582
H            2.66216812623575        0.77765028342532       -0.21141782893147
H            1.87588589820946        0.21942781132577        1.29460920822104
H           -0.38545240727459        0.89539366164581       -1.64754003942029
14
 energy: -21.204046331697 gnorm: 0.002540898692 xtb: 6.7.0 (08769fc)
C            0.53037427638840       -1.85649355305986        0.18963778112972
C            0.90926644654688       -0.58486248011512       -0.54487026022006
C            1.71499952731775        0.45977087932537        0.24217986577861
O            0.70176357575708        1.45496516133091        0.04497450530847
C           -0.15876755715142        0.53472555749522       -0.64127369202604
C           -1.40079113680157        0.29285259898948        0.06042505270694
N           -2.38000949975397        0.10811273046856        0.62309740779952
H            1.41556388995395       -2.47332085270730        0.33017384053200
H           -0.20187499629529       -2.42161520939695       -0.38398607021257
H            0.10259289948153       -1.63085892719430        1.16467402271269
H            1.34165318210503       -0.82009039992634       -1.51877291626583
H            2.66910360325501        0.76831695892287       -0.19416642880779
H            1.84818585886587        0.22976218130665        1.30462058471163
H           -0.39508842366924        0.88212557256082       -1.65747818604732
14
 energy: -21.204051775582 gnorm: 0.000774215980 xtb: 6.7.0 (08769fc)
C            0.52961907759312       -1.85593569800388        0.19036866604817
C            0.90910107793425       -0.58488532014674       -0.54473713922342
C            1.71560235917884        0.45961909089955        0.24179224819174
O            0.70169157115508        1.45351387208761        0.04799784073115
C           -0.15837361112900        0.53516629679073       -0.64037448559972
C           -1.40115718484661        0.29249542167435        0.05880153738685
N           -2.37970740847830        0.10436687820345        0.62049470803222
H            1.41432386100510       -2.47335115935491        0.33100695916622
H           -0.20310843536670       -2.42057888232070       -0.38295069144474
H            0.10211574556489       -1.62948519250936        1.16526242438168
H            1.34083047228001       -0.82065768806473       -1.51874790159336
H            2.66752365594053        0.76986491950542       -0.19647849203338
H            1.85157100121303        0.22906229160941        1.30288037648177
H           -0.39306053604424        0.88419538762980       -1.65608054342523
14
 energy: -21.204053046513 gnorm: 0.000582258445 xtb: 6.7.0 (08769fc)
C            0.52868230240290       -1.85574266649286        0.19021156338475
C            0.90895175851301       -0.58486301394485       -0.54432624259857
C            1.71541924455711        0.45985285905919        0.24184450254555
O            0.70207485057830        1.45339269759185        0.04776367883153
C           -0.15802344687419        0.53592644934698       -0.64086563381443
C           -1.40048815338424        0.29293557604646        0.05820573027116
N           -2.37654409942447        0.10116604145433        0.62270107054751
H            1.41292290689441       -2.47365148853017        0.33162533522115
H           -0.20378473863435       -2.42003830754795       -0.38377074913065
H            0.10031253080863       -1.62933435600787        1.16477768611745
H            1.34124415715457       -0.82036201739137       -1.51806797860500
H            2.66679458756289        0.77001766812916       -0.19617066708744
H            1.85169065313994        0.22993526023253        1.30199683880719
H           -0.39228090729451        0.88415551605456       -1.65668962739025
14
 energy: -21.204053387573 gnorm: 0.000347931034 xtb: 6.7.0 (08769fc)
C            0.52869611919553       -1.85562959478958        0.19003740956354
C            0.90894919344143       -0.58487340124277       -0.54447363891658
C            1.71545086372255        0.45976470296768        0.24186033860835
O            0.70222357957455        1.45368165252822        0.04721333475426
C           -0.15811173454575        0.53599261528889       -0.64109365550815
C           -1.40039163008161        0.29296444705761        0.05849660107114
N           -2.37631254732802        0.10078023692932        0.62303408646173
H            1.41289368123777       -2.47365869837375        0.33137738640616
H           -0.20391737536803       -2.41990080003698       -0.38372928225617
H            0.10053872633528       -1.62925221432472        1.16467937902277
H            1.34121282292527       -0.82017625459164       -1.51826974525930
H            2.66732691431953        0.76932674483251       -0.19594435781151
H            1.85095762199765        0.23032772914556        1.30275191801274
H           -0.39254458942617        0.88404305260964       -1.65670426704902
14
 energy: -21.204053446544 gnorm: 0.000115216047 xtb: 6.7.0 (08769fc)
C            0.52856148276570       -1.85556476019564        0.18999170131746
C            0.90899178282487       -0.58477222881557       -0.54442237110586
C            1.71546149379425        0.45984961487054        0.24190380179449
O            0.70224383428351        1.45400267553924        0.04717995433755
C           -0.15803724038512        0.53608941040956       -0.64112565448984
C           -1.40034435988333        0.29290630113906        0.05855935838904
N           -2.37622402546310        0.10044242962223        0.62328219596649
H            1.41275500387672       -2.47363932832226        0.33129067680462
H           -0.20409408744707       -2.41981759688360       -0.38385355867610
H            0.10040405668259       -1.62923504726875        1.16467732953264
H            1.34136475154082       -0.82010435706674       -1.51817199786232
H            2.66750875311414        0.76925843613616       -0.19580317402574
H            1.85107548816022        0.23021791908130        1.30273509065091
H           -0.39269528786420        0.88375674975447       -1.65700784553338
