12
 energy: -21.751004830376 gnorm: 0.000019821520 xtb: 6.7.1 (edcfbbe)
N           -2.47874548221608       -0.11758938198766        0.00038305456265
C           -1.69718793473905        0.87476353340646       -0.00098895722588
N           -0.34026722465608        0.72512035590750       -0.00107756109409
C            0.35303445896229       -0.47117106492225        0.00035289244024
N           -0.09353163277103       -1.65181323628701        0.00179516359841
C            1.83516409198369       -0.28401759091859        0.00008880049571
O            2.37329166473774        0.79364526283971       -0.00103954262696
H           -3.46583895993074        0.11288256602891        0.00033375484050
H           -1.99808052244143        1.93157831694959       -0.00219053257681
H            0.24080535447992        1.55604431180786       -0.00208839310077
H           -1.11146640671281       -1.70866338554447        0.00194447923595
H            2.39071079350359       -1.23338037638006        0.00110251625104
