12
 energy: -21.741684372494 gnorm: 0.091914375748 xtb: 6.7.1 (edcfbbe)
N           -2.49660652730000       -0.10647053320000        0.00431729650000
C           -1.69310499600000        0.86928387860000       -0.00149962200000
N           -0.31258256820000        0.74574597520000       -0.00307122480000
C            0.40771918400000       -0.44661808470000       -0.00153436490000
N           -0.16633847540000       -1.58600350270000       -0.00189950160000
C            1.85515468190000       -0.33493175190000        0.00076290590000
O            2.43024548350000        0.72103605780000        0.00232647970000
H           -3.47399723460000        0.02870104880000        0.00565286910000
H           -2.09935338750000        1.87101046930000       -0.00551317270000
H            0.25741556880000        1.58869089870000       -0.00398571000000
H           -1.15573808490000       -1.58580099330000       -0.00116805640000
H            2.45507455590000       -1.23724415170000        0.00422777600000
12
 energy: -21.748536134506 gnorm: 0.043001759490 xtb: 6.7.1 (edcfbbe)
N           -2.47500086896037       -0.11787427517895        0.00398858860493
C           -1.68631436508088        0.86927410595471       -0.00140831819264
N           -0.32448423893067        0.74141699862415       -0.00289946672895
C            0.38215337145956       -0.45685412217202       -0.00107330023161
N           -0.14293255341924       -1.61107394712618       -0.00094835497759
C            1.84472327286421       -0.31421654849340        0.00172066315703
O            2.41308176800684        0.75448365715477        0.00173982716686
H           -3.46659769623299        0.04492965188213        0.00501494011826
H           -2.05080281775104        1.90094572174552       -0.00524203192369
H            0.24153979169557        1.58384009780376       -0.00392557442832
H           -1.15387427848335       -1.62410271622656       -0.00134630889899
H            2.42639681503235       -1.24336931306790        0.00299501113470
12
 energy: -21.750716223884 gnorm: 0.015220841854 xtb: 6.7.1 (edcfbbe)
N           -2.46264120621339       -0.12710149972469        0.00330941716753
C           -1.68689313908994        0.86964372362561       -0.00114504203200
N           -0.33526251190265        0.73559289602414       -0.00258732452250
C            0.35921114420940       -0.46593475095221       -0.00079753417368
N           -0.11511965959982       -1.63647669610451       -0.00024277346856
C            1.83566434054596       -0.29356992476678        0.00015292589766
O            2.39031537805507        0.77953421943405        0.00153378575364
H           -3.45831265384001        0.07264681863830        0.00424857243142
H           -2.00900890361567        1.92537008111426       -0.00433753148146
H            0.23221447668446        1.57484077201948       -0.00395381836736
H           -1.13803576455925       -1.66352874430361       -0.00116310120637
H            2.39575669952585       -1.24361758410402        0.00359809880168
12
 energy: -21.750913239324 gnorm: 0.007791302798 xtb: 6.7.1 (edcfbbe)
N           -2.46674118765307       -0.12583055741391        0.00228745753184
C           -1.69163435882204        0.87145209002455       -0.00128650588784
N           -0.33721520750572        0.73200373488627       -0.00228287571547
C            0.35513808483280       -0.46845804999080       -0.00028442116294
N           -0.10479679673455       -1.64416106179220        0.00048968377860
C            1.83522665595430       -0.28832879286684        0.00206175000273
O            2.38326585088128        0.78552293232171        0.00063676751635
H           -3.45959535938955        0.08735039329599        0.00296502676235
H           -2.00296960786623        1.92939371061589       -0.00383920800469
H            0.23514988142620        1.56804140872979       -0.00335421761584
H           -1.12739109953592       -1.67860240714991        0.00013370682488
H            2.38945134461250       -1.24098408976053        0.00108851077002
12
 energy: -21.750985951991 gnorm: 0.002972468381 xtb: 6.7.1 (edcfbbe)
N           -2.47329212730591       -0.12233679377084        0.00177865554701
C           -1.69643202530230        0.87351618724369       -0.00077258564117
N           -0.33874487794741        0.72809905483008       -0.00184042970526
C            0.35326459112814       -0.46993019948470       -0.00046050342288
N           -0.09692652800596       -1.64937861920835        0.00057444886536
C            1.83577445189872       -0.28511407422984       -0.00160782439750
O            2.37785315955590        0.79008652371319        0.00050368474913
H           -3.46233015507347        0.10186690745904        0.00225881292370
H           -2.00062120801240        1.93045238191623       -0.00288770550656
H            0.23935224697851        1.56067611179946       -0.00317590044559
H           -1.11716625737804       -1.69305619363097        0.00042103119211
H            2.38715692966423       -1.23748197573700        0.00382399064166
12
 energy: -21.750997018769 gnorm: 0.002152308933 xtb: 6.7.1 (edcfbbe)
N           -2.47657084697785       -0.12005247712625        0.00086033035077
C           -1.69766767540322        0.87423110688227       -0.00132339351945
N           -0.33948419174984        0.72635825538341       -0.00165291421124
C            0.35320795436854       -0.47024479934939        0.00030502906025
N           -0.09483747855481       -1.65061884092529        0.00156333707952
C            1.83600230127461       -0.28453253068430        0.00246192323762
O            2.37591890320528        0.79180867194442       -0.00060745020771
H           -3.46410355458690        0.10780826605632        0.00112035847151
H           -1.99999903936037        1.93027597832561       -0.00277445668496
H            0.24077592359336        1.55770955813714       -0.00246981221450
H           -1.11363345994591       -1.69974064335739        0.00160242454205
H            2.38827936433711       -1.23560323438656       -0.00046970110386
12
 energy: -21.751002724545 gnorm: 0.001161279490 xtb: 6.7.1 (edcfbbe)
N           -2.47779372974757       -0.11893750831091        0.00081954767672
C           -1.69756184344155        0.87439001697671       -0.00103058684790
N           -0.33989158345842        0.72567533532525       -0.00144361040598
C            0.35330905104857       -0.47041233909412        0.00018799786906
N           -0.09437069563924       -1.65093984980729        0.00150675668747
C            1.83586980086499       -0.28445586599520        0.00051082202082
O            2.37498769023967        0.79258983290126       -0.00058166509346
H           -3.46500978712534        0.11013513599934        0.00096651919872
H           -1.99932677325756        1.93043527047445       -0.00250374879340
H            0.24087431317696        1.55677040852795       -0.00244534100728
H           -1.11266839575971       -1.70320152899310        0.00149439635567
H            2.38947015329921       -1.23464959710433        0.00113458713957
12
 energy: -21.751004523732 gnorm: 0.000642066074 xtb: 6.7.1 (edcfbbe)
N           -2.47892528179843       -0.11760848260397        0.00049414181843
C           -1.69709068686024        0.87459764957314       -0.00094697903030
N           -0.34040294411536        0.72496862768254       -0.00118172187859
C            0.35322467433968       -0.47092522485931        0.00025419167007
N           -0.09367149642489       -1.65159870034361        0.00168915299009
C            1.83532265082804       -0.28417515190951       -0.00028062300560
O            2.37340830089745        0.79367364256813       -0.00085391164712
H           -3.46602672806698        0.11298167629035        0.00052403366793
H           -1.99798201554405        1.93130987531051       -0.00218029467002
H            0.24067884087513        1.55592748531322       -0.00221721052833
H           -1.11161095631143       -1.70837013665699        0.00177814855366
H            2.39096384238107       -1.23338194946447        0.00153674685977
12
 energy: -21.751004812935 gnorm: 0.000151175982 xtb: 6.7.1 (edcfbbe)
N           -2.47877860094242       -0.11763973938075        0.00042294307706
C           -1.69717465113844        0.87470312661517       -0.00096228816764
N           -0.34030971173090        0.72506638793790       -0.00112858651735
C            0.35308032335370       -0.47110453350004        0.00032723741379
N           -0.09352766383125       -1.65177485073989        0.00177438550610
C            1.83521000875766       -0.28404592601993        0.00014083687056
O            2.37329170078903        0.79365952028544       -0.00097984396119
H           -3.46587442428875        0.11292138359301        0.00038781596543
H           -1.99802753491904        1.93152354111663       -0.00222345871697
H            0.24077077954650        1.55600425259814       -0.00213645978634
H           -1.11149377070263       -1.70851871190980        0.00190328455093
H            2.39072174530654       -1.23339513969589        0.00108980856560
12
 energy: -21.751004830318 gnorm: 0.000019152358 xtb: 6.7.1 (edcfbbe)
N           -2.47874548221608       -0.11758938198766        0.00038305456265
C           -1.69718793473905        0.87476353340646       -0.00098895722588
N           -0.34026722465608        0.72512035590750       -0.00107756109409
C            0.35303445896229       -0.47117106492225        0.00035289244024
N           -0.09353163277103       -1.65181323628701        0.00179516359841
C            1.83516409198369       -0.28401759091859        0.00008880049571
O            2.37329166473774        0.79364526283971       -0.00103954262696
H           -3.46583895993074        0.11288256602891        0.00033375484050
H           -1.99808052244143        1.93157831694959       -0.00219053257681
H            0.24080535447992        1.55604431180786       -0.00208839310077
H           -1.11146640671281       -1.70866338554447        0.00194447923595
H            2.39071079350359       -1.23338037638006        0.00110251625104
