      -----------------------------------------------------------      
     |                   =====================                   |     
     |                           x T B                           |     
     |                   =====================                   |     
     |                         S. Grimme                         |     
     |          Mulliken Center for Theoretical Chemistry        |     
     |                    University of Bonn                     |     
      -----------------------------------------------------------      

   * xtb version 6.7.1 (edcfbbe) compiled by 'albert@albert-system' on 2024-07-22

   xtb is free software: you can redistribute it and/or modify it under
   the terms of the GNU Lesser General Public License as published by
   the Free Software Foundation, either version 3 of the License, or
   (at your option) any later version.
   
   xtb is distributed in the hope that it will be useful,
   but WITHOUT ANY WARRANTY; without even the implied warranty of
   MERCHANTABILITY or FITNESS FOR A PARTICULAR PURPOSE.  See the
   GNU Lesser General Public License for more details.
   
   Cite this work as:
   * C. Bannwarth, E. Caldeweyher, S. Ehlert, A. Hansen, P. Pracht,
     J. Seibert, S. Spicher, S. Grimme, WIREs Comput. Mol. Sci., 2020, 11,
     e01493. DOI: 10.1002/wcms.1493
   
   for GFN2-xTB:
   * C. Bannwarth, S. Ehlert and S. Grimme., J. Chem. Theory Comput., 2019,
     15, 1652-1671. DOI: 10.1021/acs.jctc.8b01176
   for GFN1-xTB:
   * S. Grimme, C. Bannwarth, P. Shushkov, J. Chem. Theory Comput., 2017,
     13, 1989-2009. DOI: 10.1021/acs.jctc.7b00118
   for GFN0-xTB:
   * P. Pracht, E. Caldeweyher, S. Ehlert, S. Grimme, ChemRxiv, 2019, preprint.
     DOI: 10.26434/chemrxiv.8326202.v1
   for GFN-FF:
   * S. Spicher and S. Grimme, Angew. Chem. Int. Ed., 2020, 59, 15665-15673.
     DOI: 10.1002/anie.202004239
   
   for ALPB and GBSA implicit solvation:
   * S. Ehlert, M. Stahn, S. Spicher, S. Grimme, J. Chem. Theory Comput.,
     2021, 17, 4250-4261. DOI: 10.1021/acs.jctc.1c00471
   
   for ddCOSMO and CPCM-X implicit solvation:
   * M. Stahn, S. Ehlert, S. Grimme, J. Phys. Chem. A,
     2023, XX, XXXX-XXXX. DOI: 10.1021/acs.jpca.3c04382
   
   for DFT-D4:
   * E. Caldeweyher, C. Bannwarth and S. Grimme, J. Chem. Phys., 2017,
     147, 034112. DOI: 10.1063/1.4993215
   * E. Caldeweyher, S. Ehlert, A. Hansen, H. Neugebauer, S. Spicher,
     C. Bannwarth and S. Grimme, J. Chem. Phys., 2019, 150, 154122.
     DOI: 10.1063/1.5090222
   * E. Caldeweyher, J.-M. Mewes, S. Ehlert and S. Grimme, Phys. Chem. Chem. Phys.
     2020, 22, 8499-8512. DOI: 10.1039/D0CP00502A
   
   for sTDA-xTB:
   * S. Grimme and C. Bannwarth, J. Chem. Phys., 2016, 145, 054103.
     DOI: 10.1063/1.4959605
   
   in the mass-spec context:
   * V. Asgeirsson, C. Bauer and S. Grimme, Chem. Sci., 2017, 8, 4879.
     DOI: 10.1039/c7sc00601b
   * J. Koopman and S. Grimme, ACS Omega 2019, 4, 12, 15120-15133.
     DOI: 10.1021/acsomega.9b02011
   
   for metadynamics refer to:
   * S. Grimme, J. Chem. Theory Comput., 2019, 155, 2847-2862
     DOI: 10.1021/acs.jctc.9b00143
   
   for SPH calculations refer to:
   * S. Spicher and S. Grimme, J. Chem. Theory Comput., 2021, 17, 1701-1714
     DOI: 10.1021/acs.jctc.0c01306
   
   for ONIOM refer to:
   * C. Plett, A. Katbashev, S. Ehlert, S. Grimme, M. Bursch,
     Phys. Chem. Chem. Phys., 2023, 25, 17860-17868. DOI: 10.1039/D3CP02178E
   
   for DIPRO refer to:
   * J. Kohn, N. Gildemeister, S. Grimme, D. Fazzi, A. Hansen,
     J. Chem. Phys., 2023, just accepted.
   
   for PTB refer to:
   * S. Grimme, M. Mueller, A. Hansen, J. Chem. Phys., 2023, 158, 124111.
     DOI: 10.1063/5.0137838
   
   with help from (in alphabetical order)
   P. Atkinson, C. Bannwarth, F. Bohle, G. Brandenburg, E. Caldeweyher
   M. Checinski, S. Dohm, S. Ehlert, S. Ehrlich, I. Gerasimov, C. Hölzer
   A. Katbashev, J. Kohn, J. Koopman, C. Lavigne, S. Lehtola, F. März, M. Müller,
   F. Musil, H. Neugebauer, J. Pisarek, C. Plett, P. Pracht, F. Pultar,
   J. Seibert, P. Shushkov, S. Spicher, M. Stahn, M. Steiner, T. Strunk,
   J. Stückrath, T. Rose, and J. Unsleber
   
 * started run on 2024/08/07 at 21:10:45.711     
   ID    Z sym.   atoms
    1    6 C      1, 3, 5, 6
    2    7 N      2, 4
    3    8 O      7
    4    1 H      8-15

           -------------------------------------------------
          |                Calculation Setup                |
           -------------------------------------------------

          program call               : xtb crest_best.xyz --gfn 2 --alpb toluene --opt vtight -c 0 --iterations 40
          coordinate file            : crest_best.xyz
          omp threads                :                     8


           -------------------------------------------------
          |                 G F N 2 - x T B                 |
           -------------------------------------------------

        Reference                      10.1021/acs.jctc.8b01176
      * Hamiltonian:
        H0-scaling (s, p, d)           1.850000    2.230000    2.230000
        zeta-weighting                 0.500000
      * Dispersion:
        s8                             2.700000
        a1                             0.520000
        a2                             5.000000
        s9                             5.000000
      * Repulsion:
        kExp                           1.500000    1.000000
        rExp                           1.000000
      * Coulomb:
        alpha                          2.000000
        third order                    shell-resolved
        anisotropic                    true
        a3                             3.000000
        a5                             4.000000
        cn-shift                       1.200000
        cn-exp                         4.000000
        max-rad                        5.000000

      * Solvation model:               ALPB
        Solvent                        toluene
        Parameter file                 internal GFN2-xTB/ALPB
        Dielectric constant                7.0000E+00
        Reference state                gsolv [1 M gas/solution]
        Free energy shift                  2.2081E-03 Eh       1.3856E+00 kcal/mol
        Temperature                        2.9815E+02 K
        Density                            8.6700E-01 kg/L
        Solvent mass                       7.8110E+01 g/mol
        Interaction kernel             P16
        Born radius scaling (c1)           1.7172E+00
        Born radii integrator          GBOBC
        Born offset                        0.0000E+00 a0       0.0000E+00 AA
        H-bond correction              false
        Ion screening                  false
        Surface tension                    1.0000E-05 Eh       1.5569E+01 dyn/cm
        Grid points                               230 per atom

          ...................................................
          :                      SETUP                      :
          :.................................................:
          :  # basis functions                  36          :
          :  # atomic orbitals                  36          :
          :  # shells                           22          :
          :  # electrons                        40          :
          :  max. iterations                    40          :
          :  Hamiltonian                  GFN2-xTB          :
          :  restarted?                      false          :
          :  GBSA solvation                   true          :
          :  PC potential                    false          :
          :  electronic temp.          300.0000000     K    :
          :  accuracy                    1.0000000          :
          :  -> integral cutoff          0.2500000E+02      :
          :  -> integral neglect         0.1000000E-07      :
          :  -> SCF convergence          0.1000000E-05 Eh   :
          :  -> wf. convergence          0.1000000E-03 e    :
          :  Broyden damping             0.4000000          :
          :  net charge                          0          :
          :  unpaired electrons                  0          :
          ...................................................

 iter      E             dE          RMSdq      gap      omega  full diag
   1    -22.7654695 -0.227655E+02  0.426E+00    2.08       0.0  T
   2    -22.8017982 -0.363286E-01  0.241E+00    2.39       1.0  T
   3    -22.8044471 -0.264895E-02  0.122E+00    2.50       1.0  T
   4    -22.8071875 -0.274042E-02  0.197E-01    2.37       1.0  T
   5    -22.8073586 -0.171091E-03  0.109E-01    2.35       1.0  T
   6    -22.8074134 -0.548127E-04  0.450E-02    2.36       1.0  T
   7    -22.8074146 -0.117846E-05  0.162E-02    2.35       1.6  T
   8    -22.8074162 -0.162966E-05  0.714E-03    2.36       3.6  T
   9    -22.8074164 -0.137172E-06  0.255E-03    2.36      10.1  T
  10    -22.8074164 -0.794467E-08  0.104E-03    2.36      24.7  T
  11    -22.8074164 -0.292558E-08  0.240E-04    2.36     107.7  T
  12    -22.8074164 -0.470791E-09  0.765E-05    2.36     337.7  T

   *** convergence criteria satisfied after 12 iterations ***

         #    Occupation            Energy/Eh            Energy/eV
      -------------------------------------------------------------
         1        2.0000           -0.7201430             -19.5961
       ...           ...                  ...                  ...
        14        2.0000           -0.4746648             -12.9163
        15        2.0000           -0.4734625             -12.8836
        16        2.0000           -0.4696827             -12.7807
        17        2.0000           -0.4642231             -12.6322
        18        2.0000           -0.4053590             -11.0304
        19        2.0000           -0.3837571             -10.4426
        20        2.0000           -0.3773104             -10.2671 (HOMO)
        21                         -0.2907607              -7.9120 (LUMO)
        22                         -0.1666059              -4.5336
        23                         -0.0054789              -0.1491
        24                          0.0808441               2.1999
        25                          0.1202181               3.2713
       ...                                ...                  ...
        36                          0.6689344              18.2026
      -------------------------------------------------------------
                  HL-Gap            0.0865497 Eh            2.3551 eV
             Fermi-level           -0.3340356 Eh           -9.0896 eV

 SCC (total)                   0 d,  0 h,  0 min,  0.015 sec
 SCC setup                      ...        0 min,  0.000 sec (  2.252%)
 Dispersion                     ...        0 min,  0.000 sec (  0.635%)
 classical contributions        ...        0 min,  0.000 sec (  0.153%)
 integral evaluation            ...        0 min,  0.001 sec (  3.619%)
 iterations                     ...        0 min,  0.013 sec ( 82.825%)
 molecular gradient             ...        0 min,  0.001 sec (  9.347%)
 printout                       ...        0 min,  0.000 sec (  0.899%)

         :::::::::::::::::::::::::::::::::::::::::::::::::::::
         ::                     SUMMARY                     ::
         :::::::::::::::::::::::::::::::::::::::::::::::::::::
         :: total energy             -22.523904939668 Eh    ::
         :: total w/o Gsasa/hb       -22.515311724857 Eh    ::
         :: gradient norm              0.076619035305 Eh/a0 ::
         :: HOMO-LUMO gap              2.355137465822 eV    ::
         ::.................................................::
         :: SCC energy               -22.807397340916 Eh    ::
         :: -> isotropic ES            0.047012615050 Eh    ::
         :: -> anisotropic ES          0.002329725682 Eh    ::
         :: -> anisotropic XC          0.013952640956 Eh    ::
         :: -> dispersion             -0.009089981406 Eh    ::
         :: -> Gsolv                  -0.010737496443 Eh    ::
         ::    -> Gelec               -0.002144281633 Eh    ::
         ::    -> Gsasa               -0.010801357949 Eh    ::
         ::    -> Ghb                  0.000000000000 Eh    ::
         ::    -> Gshift               0.002208143139 Eh    ::
         :: repulsion energy           0.283492401249 Eh    ::
         :: add. restraining           0.000000000000 Eh    ::
         :: total charge              -0.000000000000 e     ::
         :::::::::::::::::::::::::::::::::::::::::::::::::::::

      ----------------------------------------------------------- 
     |                   =====================                   |
     |                        A N C O P T                        |
     |                   =====================                   |
     |               Approximate Normal Coordinate               |
     |                Rational Function Optimizer                |
      ----------------------------------------------------------- 
      ----------------------------------------------------------- 
     |                   =====================                   |
     |                        A N C O P T                        |
     |                   =====================                   |
     |               Approximate Normal Coordinate               |
     |                Rational Function Optimizer                |
      ----------------------------------------------------------- 

          ...................................................
          :                      SETUP                      :
          :.................................................:
          :   optimization level         verytight          :
          :   max. optcycles                   300          :
          :   ANC micro-cycles                  20          :
          :   degrees of freedom                39          :
          :.................................................:
          :   RF solver                   davidson          :
          :   write xtbopt.log                true          :
          :   linear?                        false          :
          :   energy convergence         0.1000000E-06 Eh   :
          :   grad. convergence          0.2000000E-03 Eh/α :
          :   maxmium RF displ.          1.0000000          :
          :   Hlow (freq-cutoff)         0.1000000E-01      :
          :   Hmax (freq-cutoff)         5.0000000          :
          :   S6 in model hess.         20.0000000          :
          ...................................................

generating ANC from exact Hessian ...
Using Lindh-Hessian (1995)
 Shifting diagonal of input Hessian by   6.286598013203184E-003
 Lowest  eigenvalues of input Hessian
    0.000000    0.000000    0.000000    0.000000    0.000000    0.000000
    0.010000    0.011486    0.013549    0.015861    0.022001    0.022907
    0.045399    0.049567    0.058638    0.060214    0.067716    0.074173
 Highest eigenvalues
    1.221958    1.375163    1.520015    1.844885    2.050331    2.278934
 

........................................................................
.............................. CYCLE    1 ..............................
........................................................................

 iter      E             dE          RMSdq      gap      omega  full diag
   1    -22.8074164 -0.228074E+02  0.114E-05    2.36       0.0  T
   2    -22.8074164 -0.675016E-12  0.630E-06    2.36    4099.7  T
   3    -22.8074164 -0.248690E-12  0.313E-06    2.36    8255.1  T
     SCC iter.                  ...        0 min,  0.004 sec
     gradient                   ...        0 min,  0.002 sec
 * total energy  :   -22.5239049 Eh     change       -0.3464962E-10 Eh
   gradient norm :     0.0766193 Eh/α   predicted     0.0000000E+00 (-100.00%)
   displ. norm   :     0.2899866 α      lambda       -0.6864686E-02
   maximum displ.:     0.2446718 α      in ANC's #3, #10, #1, ...

........................................................................
.............................. CYCLE    2 ..............................
........................................................................

 iter      E             dE          RMSdq      gap      omega  full diag
   1    -22.8075925 -0.228076E+02  0.221E-01    2.43       0.0  T
   2    -22.8076356 -0.431420E-04  0.137E-01    2.44       1.0  T
   3    -22.8076255  0.101336E-04  0.589E-02    2.46       1.0  T
   4    -22.8076478 -0.222884E-04  0.108E-02    2.46       2.4  T
   5    -22.8076484 -0.607535E-06  0.441E-03    2.46       5.8  T
   6    -22.8076484 -0.716919E-07  0.216E-03    2.46      11.9  T
   7    -22.8076484 -0.871453E-08  0.664E-04    2.46      38.9  T
   8    -22.8076485 -0.223460E-08  0.281E-04    2.46      92.0  T
     SCC iter.                  ...        0 min,  0.007 sec
     gradient                   ...        0 min,  0.003 sec
 * total energy  :   -22.5286745 Eh     change       -0.4769547E-02 Eh
   gradient norm :     0.0365126 Eh/α   predicted    -0.3720982E-02 ( -21.98%)
   displ. norm   :     0.2155616 α      lambda       -0.2329096E-02
   maximum displ.:     0.1731575 α      in ANC's #3, #10, #1, ...

........................................................................
.............................. CYCLE    3 ..............................
........................................................................

 iter      E             dE          RMSdq      gap      omega  full diag
   1    -22.8085858 -0.228086E+02  0.180E-01    2.56       0.0  T
   2    -22.8086571 -0.713380E-04  0.114E-01    2.55       1.0  T
   3    -22.8086769 -0.198018E-04  0.593E-02    2.56       1.0  T
   4    -22.8086836 -0.668095E-05  0.117E-02    2.56       2.2  T
   5    -22.8086847 -0.112598E-05  0.354E-03    2.56       7.3  T
   6    -22.8086847 -0.980972E-08  0.154E-03    2.56      16.8  T
   7    -22.8086847 -0.659894E-08  0.539E-04    2.56      47.9  T
   8    -22.8086847 -0.127126E-08  0.194E-04    2.56     133.2  T
     SCC iter.                  ...        0 min,  0.006 sec
     gradient                   ...        0 min,  0.001 sec
 * total energy  :   -22.5299961 Eh     change       -0.1321645E-02 Eh
   gradient norm :     0.0091596 Eh/α   predicted    -0.1218663E-02 (  -7.79%)
   displ. norm   :     0.0831318 α      lambda       -0.2159447E-03
   maximum displ.:     0.0603881 α      in ANC's #3, #1, #4, ...

........................................................................
.............................. CYCLE    4 ..............................
........................................................................

 iter      E             dE          RMSdq      gap      omega  full diag
   1    -22.8095916 -0.228096E+02  0.594E-02    2.60       0.0  T
   2    -22.8095979 -0.634520E-05  0.330E-02    2.59       1.0  T
   3    -22.8095992 -0.124752E-05  0.195E-02    2.60       1.3  T
   4    -22.8096001 -0.956629E-06  0.344E-03    2.59       7.5  T
   5    -22.8096002 -0.108545E-06  0.115E-03    2.59      22.4  T
   6    -22.8096002 -0.700272E-09  0.231E-04    2.59     111.8  T
   7    -22.8096002 -0.333909E-09  0.972E-05    2.59     265.7  T
     SCC iter.                  ...        0 min,  0.007 sec
     gradient                   ...        0 min,  0.002 sec
 * total energy  :   -22.5301429 Eh     change       -0.1467580E-03 Eh
   gradient norm :     0.0043838 Eh/α   predicted    -0.1087189E-03 ( -25.92%)
   displ. norm   :     0.0856954 α      lambda       -0.1135960E-03
   maximum displ.:     0.0592610 α      in ANC's #1, #3, #4, ...

........................................................................
.............................. CYCLE    5 ..............................
........................................................................

 iter      E             dE          RMSdq      gap      omega  full diag
   1    -22.8102507 -0.228103E+02  0.542E-02    2.62       0.0  T
   2    -22.8102545 -0.385704E-05  0.300E-02    2.61       1.0  T
   3    -22.8102549 -0.349423E-06  0.177E-02    2.61       1.5  T
   4    -22.8102559 -0.103367E-05  0.298E-03    2.61       8.7  T
   5    -22.8102560 -0.643087E-07  0.126E-03    2.61      20.5  T
   6    -22.8102560 -0.159997E-08  0.297E-04    2.61      87.0  T
   7    -22.8102560 -0.127145E-09  0.137E-04    2.61     188.5  T
     SCC iter.                  ...        0 min,  0.008 sec
     gradient                   ...        0 min,  0.001 sec
 * total energy  :   -22.5302210 Eh     change       -0.7810770E-04 Eh
   gradient norm :     0.0035683 Eh/α   predicted    -0.5721424E-04 ( -26.75%)
   displ. norm   :     0.0927125 α      lambda       -0.7463661E-04
   maximum displ.:     0.0655060 α      in ANC's #1, #4, #2, ...

........................................................................
.............................. CYCLE    6 ..............................
........................................................................

 iter      E             dE          RMSdq      gap      omega  full diag
   1    -22.8104828 -0.228105E+02  0.587E-02    2.62       0.0  T
   2    -22.8104854 -0.254823E-05  0.336E-02    2.62       1.0  T
   3    -22.8104848  0.546083E-06  0.178E-02    2.62       1.5  T
   4    -22.8104864 -0.155363E-05  0.265E-03    2.62       9.7  T
   5    -22.8104864 -0.382895E-07  0.125E-03    2.62      20.6  T
   6    -22.8104864 -0.229059E-08  0.306E-04    2.62      84.4  T
   7    -22.8104864 -0.125734E-09  0.146E-04    2.62     177.2  T
     SCC iter.                  ...        0 min,  0.007 sec
     gradient                   ...        0 min,  0.002 sec
 * total energy  :   -22.5302784 Eh     change       -0.5740491E-04 Eh
   gradient norm :     0.0035618 Eh/α   predicted    -0.3763892E-04 ( -34.43%)
   displ. norm   :     0.1616990 α      lambda       -0.9839817E-04
   maximum displ.:     0.1097885 α      in ANC's #1, #4, #2, ...

........................................................................
.............................. CYCLE    7 ..............................
........................................................................

 iter      E             dE          RMSdq      gap      omega  full diag
   1    -22.8103194 -0.228103E+02  0.983E-02    2.63       0.0  T
   2    -22.8103229 -0.348817E-05  0.573E-02    2.62       1.0  T
   3    -22.8103202  0.266349E-05  0.239E-02    2.63       1.1  T
   4    -22.8103244 -0.413904E-05  0.358E-03    2.62       7.2  T
   5    -22.8103244 -0.404998E-07  0.182E-03    2.62      14.2  T
   6    -22.8103244 -0.668001E-08  0.512E-04    2.62      50.4  T
   7    -22.8103244 -0.483489E-09  0.255E-04    2.62     101.4  T
     SCC iter.                  ...        0 min,  0.004 sec
     gradient                   ...        0 min,  0.005 sec
 * total energy  :   -22.5303547 Eh     change       -0.7628014E-04 Eh
   gradient norm :     0.0043938 Eh/α   predicted    -0.5048534E-04 ( -33.82%)
   displ. norm   :     0.2420872 α      lambda       -0.1249761E-03
   maximum displ.:     0.1554574 α      in ANC's #1, #4, #2, ...

........................................................................
.............................. CYCLE    8 ..............................
........................................................................

 iter      E             dE          RMSdq      gap      omega  full diag
   1    -22.8094881 -0.228095E+02  0.144E-01    2.62       0.0  T
   2    -22.8094919 -0.379609E-05  0.841E-02    2.61       1.0  T
   3    -22.8094891  0.278695E-05  0.218E-02    2.62       1.2  T
   4    -22.8094933 -0.426466E-05  0.444E-03    2.62       5.8  T
   5    -22.8094934 -0.353593E-07  0.216E-03    2.62      11.9  T
   6    -22.8094934 -0.784983E-08  0.763E-04    2.62      33.8  T
   7    -22.8094934 -0.238607E-08  0.356E-04    2.62      72.4  T
     SCC iter.                  ...        0 min,  0.003 sec
     gradient                   ...        0 min,  0.003 sec
 * total energy  :   -22.5304474 Eh     change       -0.9276623E-04 Eh
   gradient norm :     0.0075762 Eh/α   predicted    -0.6615220E-04 ( -28.69%)
   displ. norm   :     0.2658197 α      lambda       -0.1449515E-03
   maximum displ.:     0.1612355 α      in ANC's #1, #4, #2, ...

........................................................................
.............................. CYCLE    9 ..............................
........................................................................

 iter      E             dE          RMSdq      gap      omega  full diag
   1    -22.8087451 -0.228087E+02  0.152E-01    2.60       0.0  T
   2    -22.8087477 -0.266229E-05  0.893E-02    2.61       1.0  T
   3    -22.8087480 -0.284576E-06  0.976E-03    2.61       2.6  T
   4    -22.8087487 -0.667244E-06  0.414E-03    2.61       6.2  T
   5    -22.8087487 -0.369150E-07  0.201E-03    2.61      12.8  T
   6    -22.8087487 -0.646556E-08  0.683E-04    2.61      37.8  T
   7    -22.8087487 -0.192740E-08  0.343E-04    2.61      75.3  T
     SCC iter.                  ...        0 min,  0.013 sec
     gradient                   ...        0 min,  0.003 sec
 * total energy  :   -22.5305496 Eh     change       -0.1021829E-03 Eh
   gradient norm :     0.0107373 Eh/α   predicted    -0.7759485E-04 ( -24.06%)
   displ. norm   :     0.2133631 α      lambda       -0.2133160E-03
   maximum displ.:     0.1085151 α      in ANC's #4, #1, #5, ...

........................................................................
.............................. CYCLE   10 ..............................
........................................................................

 iter      E             dE          RMSdq      gap      omega  full diag
   1    -22.8103685 -0.228104E+02  0.116E-01    2.61       0.0  T
   2    -22.8103696 -0.111880E-05  0.679E-02    2.61       1.0  T
   3    -22.8103698 -0.206085E-06  0.646E-03    2.61       4.0  T
   4    -22.8103701 -0.287779E-06  0.281E-03    2.61       9.2  T
   5    -22.8103701 -0.625543E-08  0.124E-03    2.61      20.8  T
   6    -22.8103701 -0.675565E-08  0.449E-04    2.61      57.5  T
   7    -22.8103701 -0.406182E-09  0.216E-04    2.61     119.7  T
     SCC iter.                  ...        0 min,  0.006 sec
     gradient                   ...        0 min,  0.009 sec
 * total energy  :   -22.5307032 Eh     change       -0.1535210E-03 Eh
   gradient norm :     0.0080663 Eh/α   predicted    -0.1115120E-03 ( -27.36%)
   displ. norm   :     0.2887456 α      lambda       -0.1977034E-03
   maximum displ.:     0.1586529 α      in ANC's #1, #4, #5, ...

........................................................................
.............................. CYCLE   11 ..............................
........................................................................

 iter      E             dE          RMSdq      gap      omega  full diag
   1    -22.8095056 -0.228095E+02  0.165E-01    2.61       0.0  T
   2    -22.8095084 -0.279316E-05  0.971E-02    2.61       1.0  T
   3    -22.8095083  0.785072E-07  0.115E-02    2.61       2.2  T
   4    -22.8095094 -0.110218E-05  0.426E-03    2.61       6.1  T
   5    -22.8095094 -0.370460E-07  0.216E-03    2.61      12.0  T
   6    -22.8095094 -0.130681E-07  0.738E-04    2.61      35.0  T
   7    -22.8095094 -0.131301E-08  0.318E-04    2.61      81.2  T
     SCC iter.                  ...        0 min,  0.007 sec
     gradient                   ...        0 min,  0.002 sec
 * total energy  :   -22.5308401 Eh     change       -0.1369263E-03 Eh
   gradient norm :     0.0102804 Eh/α   predicted    -0.1070965E-03 ( -21.79%)
   displ. norm   :     0.1999886 α      lambda       -0.2962912E-03
   maximum displ.:     0.1290000 α      in ANC's #5, #4, #1, ...

........................................................................
.............................. CYCLE   12 ..............................
........................................................................

 iter      E             dE          RMSdq      gap      omega  full diag
   1    -22.8138903 -0.228139E+02  0.120E-01    2.67       0.0  T
   2    -22.8138946 -0.431061E-05  0.707E-02    2.66       1.0  T
   3    -22.8138941  0.571492E-06  0.131E-02    2.66       2.0  T
   4    -22.8138954 -0.132651E-05  0.348E-03    2.66       7.4  T
   5    -22.8138954 -0.394839E-07  0.202E-03    2.66      12.8  T
   6    -22.8138954 -0.629436E-08  0.830E-04    2.66      31.1  T
   7    -22.8138954 -0.185230E-08  0.353E-04    2.66      73.1  T
     SCC iter.                  ...        0 min,  0.010 sec
     gradient                   ...        0 min,  0.003 sec
 * total energy  :   -22.5309452 Eh     change       -0.1051390E-03 Eh
   gradient norm :     0.0087219 Eh/α   predicted    -0.1540699E-03 (  46.54%)
   displ. norm   :     0.3504828 α      lambda       -0.2452898E-03
   maximum displ.:     0.1993809 α      in ANC's #1, #4, #5, ...

........................................................................
.............................. CYCLE   13 ..............................
........................................................................

 iter      E             dE          RMSdq      gap      omega  full diag
   1    -22.8092157 -0.228092E+02  0.215E-01    2.63       0.0  T
   2    -22.8092281 -0.123740E-04  0.126E-01    2.65       1.0  T
   3    -22.8092235  0.458290E-05  0.292E-02    2.64       1.0  T
   4    -22.8092309 -0.736372E-05  0.673E-03    2.65       3.8  T
   5    -22.8092311 -0.195355E-06  0.358E-03    2.64       7.2  T
   6    -22.8092311 -0.229375E-07  0.139E-03    2.64      18.5  T
   7    -22.8092311 -0.517075E-08  0.545E-04    2.64      47.4  T
   8    -22.8092311 -0.519435E-09  0.235E-04    2.64     109.9  T
     SCC iter.                  ...        0 min,  0.009 sec
     gradient                   ...        0 min,  0.005 sec
 * total energy  :   -22.5310559 Eh     change       -0.1106802E-03 Eh
   gradient norm :     0.0134318 Eh/α   predicted    -0.1377136E-03 (  24.42%)
   displ. norm   :     0.0635579 α      lambda       -0.1652442E-03
   maximum displ.:     0.0288113 α      in ANC's #1, #3, #4, ...

........................................................................
.............................. CYCLE   14 ..............................
........................................................................

 iter      E             dE          RMSdq      gap      omega  full diag
   1    -22.8112163 -0.228112E+02  0.396E-02    2.67       0.0  T
   2    -22.8112193 -0.297342E-05  0.227E-02    2.66       1.1  T
   3    -22.8112193 -0.644481E-07  0.120E-02    2.66       2.1  T
   4    -22.8112198 -0.434345E-06  0.280E-03    2.66       9.2  T
   5    -22.8112198 -0.461104E-07  0.100E-03    2.66      25.7  T
   6    -22.8112198 -0.243475E-08  0.493E-04    2.66      52.3  T
   7    -22.8112198 -0.239208E-09  0.154E-04    2.66     167.6  T
     SCC iter.                  ...        0 min,  0.006 sec
     gradient                   ...        0 min,  0.001 sec
 * total energy  :   -22.5311669 Eh     change       -0.1110506E-03 Eh
   gradient norm :     0.0058934 Eh/α   predicted    -0.8295770E-04 ( -25.30%)
   displ. norm   :     0.2115984 α      lambda       -0.1941620E-03
   maximum displ.:     0.1176467 α      in ANC's #5, #4, #1, ...

........................................................................
.............................. CYCLE   15 ..............................
........................................................................

 iter      E             dE          RMSdq      gap      omega  full diag
   1    -22.8114199 -0.228114E+02  0.128E-01    2.69       0.0  T
   2    -22.8114231 -0.323055E-05  0.748E-02    2.68       1.0  T
   3    -22.8114230  0.105750E-06  0.103E-02    2.68       2.5  T
   4    -22.8114238 -0.828456E-06  0.375E-03    2.68       6.9  T
   5    -22.8114239 -0.460012E-07  0.161E-03    2.68      16.0  T
   6    -22.8114239 -0.507417E-08  0.769E-04    2.68      33.6  T
   7    -22.8114239 -0.198293E-08  0.310E-04    2.68      83.4  T
     SCC iter.                  ...        0 min,  0.006 sec
     gradient                   ...        0 min,  0.001 sec
 * total energy  :   -22.5313005 Eh     change       -0.1335884E-03 Eh
   gradient norm :     0.0038680 Eh/α   predicted    -0.1014273E-03 ( -24.07%)
   displ. norm   :     0.3116941 α      lambda       -0.1860183E-03
   maximum displ.:     0.1817055 α      in ANC's #5, #4, #1, ...

........................................................................
.............................. CYCLE   16 ..............................
........................................................................

 iter      E             dE          RMSdq      gap      omega  full diag
   1    -22.8106102 -0.228106E+02  0.215E-01    2.67       0.0  T
   2    -22.8106208 -0.106156E-04  0.127E-01    2.68       1.0  T
   3    -22.8106170  0.379944E-05  0.276E-02    2.67       1.0  T
   4    -22.8106231 -0.610335E-05  0.605E-03    2.68       4.3  T
   5    -22.8106233 -0.165824E-06  0.324E-03    2.68       8.0  T
   6    -22.8106233 -0.243694E-07  0.112E-03    2.68      23.1  T
   7    -22.8106233 -0.353325E-08  0.519E-04    2.68      49.8  T
   8    -22.8106233 -0.432685E-09  0.215E-04    2.68     120.3  T
     SCC iter.                  ...        0 min,  0.012 sec
     gradient                   ...        0 min,  0.001 sec
 * total energy  :   -22.5313624 Eh     change       -0.6187937E-04 Eh
   gradient norm :     0.0137513 Eh/α   predicted    -0.1020460E-03 (  64.91%)
   displ. norm   :     0.0885996 α      lambda       -0.1721131E-03
   maximum displ.:     0.0584738 α      in ANC's #2, #5, #4, ...

........................................................................
.............................. CYCLE   17 ..............................
........................................................................

 iter      E             dE          RMSdq      gap      omega  full diag
   1    -22.8123998 -0.228124E+02  0.470E-02    2.72       0.0  T
   2    -22.8124043 -0.449732E-05  0.288E-02    2.71       1.0  T
   3    -22.8124043  0.259715E-07  0.118E-02    2.71       2.2  T
   4    -22.8124048 -0.499041E-06  0.341E-03    2.71       7.6  T
   5    -22.8124048 -0.508319E-07  0.135E-03    2.71      19.2  T
   6    -22.8124048 -0.950218E-08  0.562E-04    2.71      45.9  T
   7    -22.8124048 -0.504308E-09  0.235E-04    2.71     109.8  T
     SCC iter.                  ...        0 min,  0.008 sec
     gradient                   ...        0 min,  0.003 sec
 * total energy  :   -22.5314576 Eh     change       -0.9523120E-04 Eh
   gradient norm :     0.0053237 Eh/α   predicted    -0.8673243E-04 (  -8.92%)
   displ. norm   :     0.1419602 α      lambda       -0.8795546E-04
   maximum displ.:     0.0786092 α      in ANC's #1, #5, #4, ...

........................................................................
.............................. CYCLE   18 ..............................
........................................................................

 iter      E             dE          RMSdq      gap      omega  full diag
   1    -22.8121296 -0.228121E+02  0.913E-02    2.72       0.0  T
   2    -22.8121303 -0.642847E-06  0.538E-02    2.72       1.0  T
   3    -22.8121301  0.157571E-06  0.628E-03    2.72       4.1  T
   4    -22.8121305 -0.419604E-06  0.219E-03    2.72      11.8  T
   5    -22.8121305 -0.959498E-08  0.101E-03    2.72      25.6  T
   6    -22.8121305 -0.203683E-08  0.316E-04    2.72      81.8  T
   7    -22.8121305 -0.152738E-09  0.158E-04    2.72     163.7  T
     SCC iter.                  ...        0 min,  0.003 sec
     gradient                   ...        0 min,  0.001 sec
 * total energy  :   -22.5315196 Eh     change       -0.6194659E-04 Eh
   gradient norm :     0.0031912 Eh/α   predicted    -0.4486301E-04 ( -27.58%)
   displ. norm   :     0.2058245 α      lambda       -0.1063629E-03
   maximum displ.:     0.0963292 α      in ANC's #1, #3, #5, ...

........................................................................
.............................. CYCLE   19 ..............................
........................................................................

 iter      E             dE          RMSdq      gap      omega  full diag
   1    -22.8129682 -0.228130E+02  0.140E-01    2.72       0.0  T
   2    -22.8129701 -0.187961E-05  0.826E-02    2.72       1.0  T
   3    -22.8129697  0.383920E-06  0.908E-03    2.72       2.8  T
   4    -22.8129707 -0.977421E-06  0.323E-03    2.72       8.0  T
   5    -22.8129707 -0.217486E-07  0.161E-03    2.72      16.0  T
   6    -22.8129707 -0.891934E-08  0.541E-04    2.72      47.8  T
   7    -22.8129707 -0.363428E-09  0.250E-04    2.72     103.5  T
     SCC iter.                  ...        0 min,  0.015 sec
     gradient                   ...        0 min,  0.001 sec
 * total energy  :   -22.5315826 Eh     change       -0.6300845E-04 Eh
   gradient norm :     0.0044447 Eh/α   predicted    -0.5543511E-04 ( -12.02%)
   displ. norm   :     0.1935292 α      lambda       -0.5089821E-04
   maximum displ.:     0.0979004 α      in ANC's #4, #1, #3, ...

........................................................................
.............................. CYCLE   20 ..............................
........................................................................

 iter      E             dE          RMSdq      gap      omega  full diag
   1    -22.8109868 -0.228110E+02  0.123E-01    2.72       0.0  T
   2    -22.8109896 -0.279655E-05  0.719E-02    2.72       1.0  T
   3    -22.8109897 -0.647288E-07  0.835E-03    2.72       3.1  T
   4    -22.8109901 -0.426478E-06  0.273E-03    2.72       9.5  T
   5    -22.8109901 -0.120474E-07  0.154E-03    2.72      16.7  T
   6    -22.8109901 -0.444757E-08  0.482E-04    2.72      53.6  T
   7    -22.8109901 -0.107353E-08  0.243E-04    2.72     106.2  T
     SCC iter.                  ...        0 min,  0.009 sec
     gradient                   ...        0 min,  0.005 sec
 * total energy  :   -22.5315903 Eh     change       -0.7684551E-05 Eh
   gradient norm :     0.0082926 Eh/α   predicted    -0.2640177E-04 ( 243.57%)
   displ. norm   :     0.1237472 α      lambda       -0.1340017E-03
   maximum displ.:     0.0694446 α      in ANC's #3, #2, #5, ...
 * RMSD in coord.:     0.7323455 α      energy gain  -0.7685347E-02 Eh

generating ANC from exact Hessian ...
Using Lindh-Hessian (1995)
 Shifting diagonal of input Hessian by   6.754876641406898E-003
 Lowest  eigenvalues of input Hessian
    0.000000    0.000000    0.000000    0.000000    0.000000    0.000000
    0.010000    0.011733    0.013836    0.016707    0.021609    0.024367
    0.043810    0.051848    0.056068    0.061606    0.066074    0.073298
 Highest eigenvalues
    1.203190    1.339593    1.559931    1.826043    2.133247    2.289247
 

........................................................................
.............................. CYCLE   21 ..............................
........................................................................

 iter      E             dE          RMSdq      gap      omega  full diag
   1    -22.8139482 -0.228139E+02  0.578E-02    2.75       0.0  T
   2    -22.8139516 -0.341521E-05  0.353E-02    2.74       1.0  T
   3    -22.8139512  0.344346E-06  0.183E-02    2.75       1.4  T
   4    -22.8139528 -0.161603E-05  0.238E-03    2.74      10.8  T
   5    -22.8139529 -0.325214E-07  0.934E-04    2.74      27.6  T
   6    -22.8139529 -0.106974E-08  0.477E-04    2.74      54.1  T
     SCC iter.                  ...        0 min,  0.003 sec
     gradient                   ...        0 min,  0.009 sec
 * total energy  :   -22.5316658 Eh     change       -0.7552122E-04 Eh
   gradient norm :     0.0049058 Eh/α   predicted     0.0000000E+00 (-100.00%)
   displ. norm   :     0.0370357 α      lambda       -0.5386356E-04
   maximum displ.:     0.0241527 α      in ANC's #1, #6, #5, ...

........................................................................
.............................. CYCLE   22 ..............................
........................................................................

 iter      E             dE          RMSdq      gap      omega  full diag
   1    -22.8136020 -0.228136E+02  0.269E-02    2.74       0.0  T
   2    -22.8136026 -0.573563E-06  0.170E-02    2.74       1.5  T
   3    -22.8136025  0.654052E-07  0.870E-03    2.74       3.0  T
   4    -22.8136029 -0.392983E-06  0.863E-04    2.74      29.9  T
   5    -22.8136029 -0.217634E-08  0.418E-04    2.74      61.8  T
     SCC iter.                  ...        0 min,  0.008 sec
     gradient                   ...        0 min,  0.003 sec
 * total energy  :   -22.5317085 Eh     change       -0.4272254E-04 Eh
   gradient norm :     0.0023807 Eh/α   predicted    -0.2696896E-04 ( -36.87%)
   displ. norm   :     0.0919061 α      lambda       -0.7169494E-04
   maximum displ.:     0.0668105 α      in ANC's #1, #6, #5, ...

........................................................................
.............................. CYCLE   23 ..............................
........................................................................

 iter      E             dE          RMSdq      gap      omega  full diag
   1    -22.8131886 -0.228132E+02  0.581E-02    2.75       0.0  T
   2    -22.8131898 -0.115191E-05  0.352E-02    2.75       1.0  T
   3    -22.8131884  0.133372E-05  0.154E-02    2.75       1.7  T
   4    -22.8131904 -0.196550E-05  0.154E-03    2.75      16.8  T
   5    -22.8131904 -0.436818E-08  0.739E-04    2.75      35.0  T
   6    -22.8131904 -0.916245E-09  0.236E-04    2.75     109.4  T
     SCC iter.                  ...        0 min,  0.110 sec
     gradient                   ...        0 min,  0.048 sec
 * total energy  :   -22.5317571 Eh     change       -0.4856720E-04 Eh
   gradient norm :     0.0023497 Eh/α   predicted    -0.3614924E-04 ( -25.57%)
   displ. norm   :     0.0891068 α      lambda       -0.3830160E-04
   maximum displ.:     0.0691280 α      in ANC's #1, #6, #5, ...

........................................................................
.............................. CYCLE   24 ..............................
........................................................................

 iter      E             dE          RMSdq      gap      omega  full diag
   1    -22.8130371 -0.228130E+02  0.500E-02    2.76       0.0  T
   2    -22.8130373 -0.192984E-06  0.295E-02    2.76       1.0  T
   3    -22.8130371  0.198373E-06  0.532E-03    2.76       4.9  T
   4    -22.8130374 -0.289221E-06  0.111E-03    2.76      23.2  T
   5    -22.8130374 -0.128020E-08  0.378E-04    2.76      68.3  T
   6    -22.8130374 -0.242569E-09  0.154E-04    2.76     168.0  T
     SCC iter.                  ...        0 min,  0.013 sec
     gradient                   ...        0 min,  0.008 sec
 * total energy  :   -22.5317889 Eh     change       -0.3182905E-04 Eh
   gradient norm :     0.0035111 Eh/α   predicted    -0.1930169E-04 ( -39.36%)
   displ. norm   :     0.1238601 α      lambda       -0.5463345E-04
   maximum displ.:     0.0948437 α      in ANC's #1, #6, #7, ...

........................................................................
.............................. CYCLE   25 ..............................
........................................................................

 iter      E             dE          RMSdq      gap      omega  full diag
   1    -22.8130254 -0.228130E+02  0.640E-02    2.77       0.0  T
   2    -22.8130256 -0.243207E-06  0.378E-02    2.77       1.0  T
   3    -22.8130255  0.111319E-06  0.469E-03    2.77       5.5  T
   4    -22.8130257 -0.217298E-06  0.134E-03    2.77      19.2  T
   5    -22.8130257 -0.210533E-08  0.511E-04    2.77      50.5  T
   6    -22.8130257 -0.896783E-09  0.189E-04    2.77     136.7  T
     SCC iter.                  ...        0 min,  0.030 sec
     gradient                   ...        0 min,  0.007 sec
 * total energy  :   -22.5318358 Eh     change       -0.4691062E-04 Eh
   gradient norm :     0.0034248 Eh/α   predicted    -0.2773799E-04 ( -40.87%)
   displ. norm   :     0.1761404 α      lambda       -0.7481517E-04
   maximum displ.:     0.1340498 α      in ANC's #1, #6, #2, ...

........................................................................
.............................. CYCLE   26 ..............................
........................................................................

 iter      E             dE          RMSdq      gap      omega  full diag
   1    -22.8129799 -0.228130E+02  0.840E-02    2.78       0.0  T
   2    -22.8129806 -0.698350E-06  0.498E-02    2.77       1.0  T
   3    -22.8129793  0.124473E-05  0.123E-02    2.78       2.1  T
   4    -22.8129809 -0.159369E-05  0.174E-03    2.77      14.9  T
   5    -22.8129809 -0.362783E-08  0.805E-04    2.77      32.1  T
   6    -22.8129809 -0.128349E-08  0.261E-04    2.77      98.9  T
     SCC iter.                  ...        0 min,  0.008 sec
     gradient                   ...        0 min,  0.004 sec
 * total energy  :   -22.5318953 Eh     change       -0.5942329E-04 Eh
   gradient norm :     0.0029176 Eh/α   predicted    -0.3856790E-04 ( -35.10%)
   displ. norm   :     0.1809870 α      lambda       -0.6618076E-04
   maximum displ.:     0.1380344 α      in ANC's #1, #6, #2, ...

........................................................................
.............................. CYCLE   27 ..............................
........................................................................

 iter      E             dE          RMSdq      gap      omega  full diag
   1    -22.8130239 -0.228130E+02  0.825E-02    2.78       0.0  T
   2    -22.8130246 -0.669247E-06  0.491E-02    2.78       1.0  T
   3    -22.8130231  0.147001E-05  0.131E-02    2.78       2.0  T
   4    -22.8130249 -0.184328E-05  0.161E-03    2.78      16.0  T
   5    -22.8130249 -0.238865E-08  0.662E-04    2.78      39.0  T
   6    -22.8130250 -0.757403E-09  0.236E-04    2.78     109.4  T
     SCC iter.                  ...        0 min,  0.007 sec
     gradient                   ...        0 min,  0.005 sec
 * total energy  :   -22.5319449 Eh     change       -0.4959401E-04 Eh
   gradient norm :     0.0033314 Eh/α   predicted    -0.3417353E-04 ( -31.09%)
   displ. norm   :     0.1815787 α      lambda       -0.6430609E-04
   maximum displ.:     0.1399864 α      in ANC's #1, #2, #6, ...

........................................................................
.............................. CYCLE   28 ..............................
........................................................................

 iter      E             dE          RMSdq      gap      omega  full diag
   1    -22.8134162 -0.228134E+02  0.820E-02    2.79       0.0  T
   2    -22.8134167 -0.497539E-06  0.487E-02    2.79       1.0  T
   3    -22.8134156  0.109899E-05  0.110E-02    2.79       2.3  T
   4    -22.8134170 -0.139234E-05  0.159E-03    2.79      16.2  T
   5    -22.8134170 -0.164810E-08  0.416E-04    2.79      62.1  T
   6    -22.8134170 -0.691312E-09  0.214E-04    2.79     120.4  T
     SCC iter.                  ...        0 min,  0.006 sec
     gradient                   ...        0 min,  0.004 sec
 * total energy  :   -22.5319936 Eh     change       -0.4870338E-04 Eh
   gradient norm :     0.0038323 Eh/α   predicted    -0.3321445E-04 ( -31.80%)
   displ. norm   :     0.2179051 α      lambda       -0.7535186E-04
   maximum displ.:     0.1634861 α      in ANC's #1, #2, #6, ...

........................................................................
.............................. CYCLE   29 ..............................
........................................................................

 iter      E             dE          RMSdq      gap      omega  full diag
   1    -22.8136177 -0.228136E+02  0.100E-01    2.80       0.0  T
   2    -22.8136183 -0.584056E-06  0.592E-02    2.80       1.0  T
   3    -22.8136180  0.290457E-06  0.680E-03    2.80       3.8  T
   4    -22.8136185 -0.533020E-06  0.212E-03    2.80      12.2  T
   5    -22.8136185 -0.643159E-08  0.937E-04    2.80      27.6  T
   6    -22.8136185 -0.213569E-08  0.268E-04    2.80      96.4  T
     SCC iter.                  ...        0 min,  0.005 sec
     gradient                   ...        0 min,  0.050 sec
 * total energy  :   -22.5320526 Eh     change       -0.5899742E-04 Eh
   gradient norm :     0.0042470 Eh/α   predicted    -0.3946612E-04 ( -33.11%)
   displ. norm   :     0.2574990 α      lambda       -0.1136983E-03
   maximum displ.:     0.1830073 α      in ANC's #1, #2, #3, ...

........................................................................
.............................. CYCLE   30 ..............................
........................................................................

 iter      E             dE          RMSdq      gap      omega  full diag
   1    -22.8145797 -0.228146E+02  0.123E-01    2.82       0.0  T
   2    -22.8145814 -0.178249E-05  0.722E-02    2.82       1.0  T
   3    -22.8145814  0.563894E-07  0.853E-03    2.81       3.0  T
   4    -22.8145819 -0.539697E-06  0.286E-03    2.81       9.0  T
   5    -22.8145819 -0.910249E-08  0.132E-03    2.81      19.5  T
   6    -22.8145819 -0.469985E-08  0.429E-04    2.81      60.1  T
   7    -22.8145819 -0.704585E-09  0.176E-04    2.81     146.4  T
     SCC iter.                  ...        0 min,  0.084 sec
     gradient                   ...        0 min,  0.003 sec
 * total energy  :   -22.5321327 Eh     change       -0.8014913E-04 Eh
   gradient norm :     0.0036642 Eh/α   predicted    -0.6061735E-04 ( -24.37%)
   displ. norm   :     0.4932157 α      lambda       -0.1326325E-03
   maximum displ.:     0.3412156 α      in ANC's #1, #2, #3, ...

........................................................................
.............................. CYCLE   31 ..............................
........................................................................

 iter      E             dE          RMSdq      gap      omega  full diag
   1    -22.8078511 -0.228079E+02  0.239E-01    2.83       0.0  T
   2    -22.8078626 -0.115244E-04  0.140E-01    2.84       1.0  T
   3    -22.8078620  0.622281E-06  0.208E-02    2.83       1.2  T
   4    -22.8078644 -0.237874E-05  0.670E-03    2.83       3.9  T
   5    -22.8078646 -0.180399E-06  0.349E-03    2.83       7.4  T
   6    -22.8078646 -0.168085E-07  0.782E-04    2.83      33.0  T
   7    -22.8078646 -0.262924E-08  0.379E-04    2.83      68.1  T
     SCC iter.                  ...        0 min,  0.021 sec
     gradient                   ...        0 min,  0.003 sec
 * total energy  :   -22.5319124 Eh     change        0.2202670E-03 Eh
   gradient norm :     0.0157026 Eh/α   predicted    -0.8244519E-04 (-137.43%)
   displ. norm   :     0.2494166 α      lambda       -0.7489945E-03
   maximum displ.:     0.1813918 α      in ANC's #1, #2, #6, ...

........................................................................
.............................. CYCLE   32 ..............................
........................................................................

 iter      E             dE          RMSdq      gap      omega  full diag
   1    -22.8151566 -0.228152E+02  0.130E-01    2.84       0.0  T
   2    -22.8151646 -0.806499E-05  0.747E-02    2.84       1.0  T
   3    -22.8151650 -0.364826E-06  0.130E-02    2.84       2.0  T
   4    -22.8151652 -0.208346E-06  0.348E-03    2.84       7.4  T
   5    -22.8151652 -0.274750E-07  0.193E-03    2.84      13.3  T
   6    -22.8151652 -0.999004E-08  0.446E-04    2.84      57.9  T
   7    -22.8151652 -0.220549E-09  0.200E-04    2.84     128.9  T
     SCC iter.                  ...        0 min,  0.004 sec
     gradient                   ...        0 min,  0.002 sec
 * total energy  :   -22.5322106 Eh     change       -0.2982057E-03 Eh
   gradient norm :     0.0028580 Eh/α   predicted    -0.3977958E-03 (  33.40%)
   displ. norm   :     0.0570996 α      lambda       -0.2525766E-04
   maximum displ.:     0.0353359 α      in ANC's #2, #1, #3, ...

........................................................................
.............................. CYCLE   33 ..............................
........................................................................

 iter      E             dE          RMSdq      gap      omega  full diag
   1    -22.8148170 -0.228148E+02  0.271E-02    2.85       0.0  T
   2    -22.8148171 -0.187586E-06  0.159E-02    2.85       1.6  T
   3    -22.8148171  0.196456E-07  0.281E-03    2.85       9.2  T
   4    -22.8148172 -0.594642E-07  0.931E-04    2.85      27.7  T
   5    -22.8148172 -0.248167E-08  0.407E-04    2.85      63.4  T
     SCC iter.                  ...        0 min,  0.003 sec
     gradient                   ...        0 min,  0.003 sec
 * total energy  :   -22.5322305 Eh     change       -0.1985574E-04 Eh
   gradient norm :     0.0016802 Eh/α   predicted    -0.1266792E-04 ( -36.20%)
   displ. norm   :     0.2426163 α      lambda       -0.3960862E-04
   maximum displ.:     0.1315761 α      in ANC's #2, #1, #3, ...

........................................................................
.............................. CYCLE   34 ..............................
........................................................................

 iter      E             dE          RMSdq      gap      omega  full diag
   1    -22.8124003 -0.228124E+02  0.123E-01    2.86       0.0  T
   2    -22.8124021 -0.176911E-05  0.722E-02    2.86       1.0  T
   3    -22.8124025 -0.466376E-06  0.586E-03    2.86       4.4  T
   4    -22.8124026 -0.900506E-07  0.296E-03    2.86       8.7  T
   5    -22.8124026 -0.560376E-08  0.101E-03    2.86      25.6  T
   6    -22.8124026 -0.478144E-08  0.285E-04    2.86      90.6  T
   7    -22.8124026 -0.241752E-09  0.148E-04    2.86     174.7  T
     SCC iter.                  ...        0 min,  0.009 sec
     gradient                   ...        0 min,  0.006 sec
 * total energy  :   -22.5322255 Eh     change        0.5023967E-05 Eh
   gradient norm :     0.0046413 Eh/α   predicted    -0.2032033E-04 (-504.47%)
   displ. norm   :     0.0848068 α      lambda       -0.4319168E-04
   maximum displ.:     0.0514906 α      in ANC's #1, #2, #3, ...

........................................................................
.............................. CYCLE   35 ..............................
........................................................................

 iter      E             dE          RMSdq      gap      omega  full diag
   1    -22.8140162 -0.228140E+02  0.444E-02    2.86       0.0  T
   2    -22.8140166 -0.426351E-06  0.260E-02    2.86       1.0  T
   3    -22.8140165  0.680249E-07  0.464E-03    2.86       5.6  T
   4    -22.8140167 -0.147200E-06  0.135E-03    2.86      19.1  T
   5    -22.8140167 -0.762742E-08  0.675E-04    2.86      38.2  T
   6    -22.8140167 -0.532349E-09  0.143E-04    2.86     181.0  T
     SCC iter.                  ...        0 min,  0.024 sec
     gradient                   ...        0 min,  0.008 sec
 * total energy  :   -22.5322504 Eh     change       -0.2490706E-04 Eh
   gradient norm :     0.0014940 Eh/α   predicted    -0.2175204E-04 ( -12.67%)
   displ. norm   :     0.0202759 α      lambda       -0.4196568E-05
   maximum displ.:     0.0169219 α      in ANC's #1, #4, #5, ...

........................................................................
.............................. CYCLE   36 ..............................
........................................................................

 iter      E             dE          RMSdq      gap      omega  full diag
   1    -22.8146351 -0.228146E+02  0.121E-02    2.86       0.0  T
   2    -22.8146352 -0.535139E-07  0.702E-03    2.86       3.7  T
   3    -22.8146352  0.107497E-07  0.163E-03    2.86      15.8  T
   4    -22.8146352 -0.175687E-07  0.436E-04    2.86      59.2  T
   5    -22.8146352 -0.117935E-08  0.200E-04    2.86     129.3  T
     SCC iter.                  ...        0 min,  0.007 sec
     gradient                   ...        0 min,  0.004 sec
 * total energy  :   -22.5322540 Eh     change       -0.3618543E-05 Eh
   gradient norm :     0.0007182 Eh/α   predicted    -0.2099861E-05 ( -41.97%)
   displ. norm   :     0.0147809 α      lambda       -0.2108522E-05
   maximum displ.:     0.0085235 α      in ANC's #2, #1, #6, ...

........................................................................
.............................. CYCLE   37 ..............................
........................................................................

 iter      E             dE          RMSdq      gap      omega  full diag
   1    -22.8147332 -0.228147E+02  0.478E-03    2.86       0.0  T
   2    -22.8147332 -0.119610E-07  0.285E-03    2.86       9.1  T
   3    -22.8147332  0.784452E-08  0.134E-03    2.86      19.3  T
   4    -22.8147332 -0.128796E-07  0.154E-04    2.86     167.4  T
   5    -22.8147332 -0.301590E-10  0.700E-05    2.86     369.1  T
     SCC iter.                  ...        0 min,  0.003 sec
     gradient                   ...        0 min,  0.003 sec
 * total energy  :   -22.5322568 Eh     change       -0.2773316E-05 Eh
   gradient norm :     0.0005689 Eh/α   predicted    -0.1055891E-05 ( -61.93%)
   displ. norm   :     0.1262596 α      lambda       -0.1367875E-04
   maximum displ.:     0.0920869 α      in ANC's #2, #6, #3, ...

........................................................................
.............................. CYCLE   38 ..............................
........................................................................

 iter      E             dE          RMSdq      gap      omega  full diag
   1    -22.8149466 -0.228149E+02  0.382E-02    2.86       0.0  T
   2    -22.8149467 -0.178739E-06  0.228E-02    2.85       1.1  T
   3    -22.8149466  0.186882E-06  0.507E-03    2.86       5.1  T
   4    -22.8149468 -0.259129E-06  0.955E-04    2.86      27.0  T
   5    -22.8149468 -0.925045E-09  0.417E-04    2.86      62.0  T
     SCC iter.                  ...        0 min,  0.004 sec
     gradient                   ...        0 min,  0.004 sec
 * total energy  :   -22.5322703 Eh     change       -0.1349795E-04 Eh
   gradient norm :     0.0020898 Eh/α   predicted    -0.6888613E-05 ( -48.97%)
   displ. norm   :     0.0903793 α      lambda       -0.1300765E-04
   maximum displ.:     0.0611152 α      in ANC's #2, #6, #1, ...

........................................................................
.............................. CYCLE   39 ..............................
........................................................................

 iter      E             dE          RMSdq      gap      omega  full diag
   1    -22.8144953 -0.228145E+02  0.285E-02    2.85       0.0  T
   2    -22.8144954 -0.861602E-07  0.169E-02    2.85       1.5  T
   3    -22.8144954  0.171304E-08  0.176E-03    2.85      14.7  T
   4    -22.8144954 -0.252374E-07  0.670E-04    2.85      38.5  T
   5    -22.8144954 -0.944198E-09  0.318E-04    2.85      81.2  T
     SCC iter.                  ...        0 min,  0.004 sec
     gradient                   ...        0 min,  0.005 sec
 * total energy  :   -22.5322807 Eh     change       -0.1042992E-04 Eh
   gradient norm :     0.0018760 Eh/α   predicted    -0.6557239E-05 ( -37.13%)
   displ. norm   :     0.2942439 α      lambda       -0.2387019E-04
   maximum displ.:     0.1973178 α      in ANC's #2, #1, #6, ...

........................................................................
.............................. CYCLE   40 ..............................
........................................................................

 iter      E             dE          RMSdq      gap      omega  full diag
   1    -22.8124865 -0.228125E+02  0.109E-01    2.83       0.0  T
   2    -22.8124876 -0.112581E-05  0.645E-02    2.83       1.0  T
   3    -22.8124876 -0.114066E-07  0.580E-03    2.83       4.5  T
   4    -22.8124879 -0.279789E-06  0.268E-03    2.83       9.6  T
   5    -22.8124879 -0.238144E-07  0.133E-03    2.83      19.5  T
   6    -22.8124879 -0.234958E-08  0.397E-04    2.83      65.1  T
   7    -22.8124879 -0.408349E-09  0.198E-04    2.83     130.7  T
     SCC iter.                  ...        0 min,  0.004 sec
     gradient                   ...        0 min,  0.003 sec
 * total energy  :   -22.5322771 Eh     change        0.3644067E-05 Eh
   gradient norm :     0.0047014 Eh/α   predicted    -0.1239646E-04 (-440.18%)
   displ. norm   :     0.0880042 α      lambda       -0.5099677E-04
   maximum displ.:     0.0651065 α      in ANC's #2, #3, #6, ...

........................................................................
.............................. CYCLE   41 ..............................
........................................................................

 iter      E             dE          RMSdq      gap      omega  full diag
   1    -22.8137112 -0.228137E+02  0.315E-02    2.83       0.0  T
   2    -22.8137116 -0.388561E-06  0.184E-02    2.83       1.4  T
   3    -22.8137116 -0.220939E-07  0.305E-03    2.83       8.5  T
   4    -22.8137116 -0.260894E-07  0.111E-03    2.83      23.3  T
   5    -22.8137116 -0.458036E-08  0.579E-04    2.83      44.6  T
   6    -22.8137116 -0.938250E-09  0.128E-04    2.83     201.3  T
     SCC iter.                  ...        0 min,  0.004 sec
     gradient                   ...        0 min,  0.003 sec
 * total energy  :   -22.5323017 Eh     change       -0.2465660E-04 Eh
   gradient norm :     0.0022269 Eh/α   predicted    -0.2569580E-04 (   4.21%)
   displ. norm   :     0.0162782 α      lambda       -0.8607354E-05
   maximum displ.:     0.0101356 α      in ANC's #1, #6, #4, ...

........................................................................
.............................. CYCLE   42 ..............................
........................................................................

 iter      E             dE          RMSdq      gap      omega  full diag
   1    -22.8142364 -0.228142E+02  0.974E-03    2.84       0.0  T
   2    -22.8142365 -0.100289E-06  0.564E-03    2.84       4.6  T
   3    -22.8142365  0.597694E-08  0.198E-03    2.84      13.0  T
   4    -22.8142365 -0.169423E-07  0.395E-04    2.84      65.3  T
   5    -22.8142365 -0.762068E-09  0.202E-04    2.84     127.7  T
     SCC iter.                  ...        0 min,  0.004 sec
     gradient                   ...        0 min,  0.003 sec
 * total energy  :   -22.5323071 Eh     change       -0.5408960E-05 Eh
   gradient norm :     0.0008115 Eh/α   predicted    -0.4305473E-05 ( -20.40%)
   displ. norm   :     0.0609833 α      lambda       -0.4651174E-05
   maximum displ.:     0.0358678 α      in ANC's #1, #2, #6, ...
 * RMSD in coord.:     0.4738935 α      energy gain  -0.7168367E-03 Eh

generating ANC from exact Hessian ...
Using Lindh-Hessian (1995)
 Shifting diagonal of input Hessian by   6.861090712819022E-003
 Lowest  eigenvalues of input Hessian
    0.000000    0.000000    0.000000    0.000000    0.000000    0.000000
    0.010000    0.011867    0.013881    0.017155    0.021900    0.024797
    0.044039    0.052328    0.057202    0.061994    0.066370    0.074067
 Highest eigenvalues
    1.201302    1.336565    1.558624    1.817118    2.133953    2.273330
 

........................................................................
.............................. CYCLE   43 ..............................
........................................................................

 iter      E             dE          RMSdq      gap      omega  full diag
   1    -22.8144056 -0.228144E+02  0.380E-02    2.83       0.0  T
   2    -22.8144057 -0.126943E-06  0.223E-02    2.83       1.2  T
   3    -22.8144057 -0.521766E-09  0.193E-03    2.83      13.4  T
   4    -22.8144057 -0.324548E-07  0.689E-04    2.83      37.5  T
   5    -22.8144057 -0.212950E-09  0.338E-04    2.83      76.4  T
     SCC iter.                  ...        0 min,  0.002 sec
     gradient                   ...        0 min,  0.002 sec
 * total energy  :   -22.5323109 Eh     change       -0.3800703E-05 Eh
   gradient norm :     0.0004765 Eh/α   predicted     0.0000000E+00 (-100.00%)
   displ. norm   :     0.0063469 α      lambda       -0.7162080E-06
   maximum displ.:     0.0045281 α      in ANC's #3, #6, #2, ...

........................................................................
.............................. CYCLE   44 ..............................
........................................................................

 iter      E             dE          RMSdq      gap      omega  full diag
   1    -22.8143468 -0.228143E+02  0.371E-03    2.83       0.0  T
   2    -22.8143468 -0.644213E-08  0.220E-03    2.83      11.7  T
   3    -22.8143468  0.438872E-08  0.969E-04    2.83      26.6  T
   4    -22.8143468 -0.692810E-08  0.131E-04    2.83     197.6  T
     SCC iter.                  ...        0 min,  0.001 sec
     gradient                   ...        0 min,  0.001 sec
 * total energy  :   -22.5323115 Eh     change       -0.5490400E-06 Eh
   gradient norm :     0.0002343 Eh/α   predicted    -0.3593665E-06 ( -34.55%)
   displ. norm   :     0.0075336 α      lambda       -0.3690038E-06
   maximum displ.:     0.0048827 α      in ANC's #3, #2, #6, ...

........................................................................
.............................. CYCLE   45 ..............................
........................................................................

 iter      E             dE          RMSdq      gap      omega  full diag
   1    -22.8143402 -0.228143E+02  0.267E-03    2.83       0.0  T
   2    -22.8143402 -0.254055E-08  0.158E-03    2.83      16.4  T
   3    -22.8143402  0.233060E-08  0.709E-04    2.83      36.4  T
   4    -22.8143402 -0.357015E-08  0.913E-05    2.83     282.7  T
     SCC iter.                  ...        0 min,  0.002 sec
     gradient                   ...        0 min,  0.002 sec
 * total energy  :   -22.5323119 Eh     change       -0.4316575E-06 Eh
   gradient norm :     0.0002450 Eh/α   predicted    -0.1844892E-06 ( -57.26%)
   displ. norm   :     0.0295915 α      lambda       -0.1067014E-05
   maximum displ.:     0.0206174 α      in ANC's #3, #6, #2, ...

........................................................................
.............................. CYCLE   46 ..............................
........................................................................

 iter      E             dE          RMSdq      gap      omega  full diag
   1    -22.8143575 -0.228144E+02  0.930E-03    2.83       0.0  T
   2    -22.8143576 -0.361856E-07  0.548E-03    2.83       4.7  T
   3    -22.8143576  0.243758E-07  0.249E-03    2.83      10.4  T
   4    -22.8143576 -0.399615E-07  0.315E-04    2.83      82.1  T
   5    -22.8143576 -0.241350E-09  0.161E-04    2.83     160.7  T
     SCC iter.                  ...        0 min,  0.003 sec
     gradient                   ...        0 min,  0.001 sec
 * total energy  :   -22.5323130 Eh     change       -0.1108755E-05 Eh
   gradient norm :     0.0003879 Eh/α   predicted    -0.5350692E-06 ( -51.74%)
   displ. norm   :     0.0280579 α      lambda       -0.6635299E-06
   maximum displ.:     0.0197266 α      in ANC's #3, #6, #2, ...

........................................................................
.............................. CYCLE   47 ..............................
........................................................................

 iter      E             dE          RMSdq      gap      omega  full diag
   1    -22.8143642 -0.228144E+02  0.809E-03    2.83       0.0  T
   2    -22.8143642 -0.137644E-07  0.479E-03    2.83       5.4  T
   3    -22.8143642  0.917711E-08  0.132E-03    2.83      19.5  T
   4    -22.8143642 -0.136555E-07  0.248E-04    2.83     103.9  T
   5    -22.8143642 -0.151044E-09  0.125E-04    2.83     205.9  T
     SCC iter.                  ...        0 min,  0.002 sec
     gradient                   ...        0 min,  0.003 sec
 * total energy  :   -22.5323137 Eh     change       -0.7118683E-06 Eh
   gradient norm :     0.0003110 Eh/α   predicted    -0.3313100E-06 ( -53.46%)
   displ. norm   :     0.0209598 α      lambda       -0.4092455E-06
   maximum displ.:     0.0142332 α      in ANC's #3, #6, #2, ...

........................................................................
.............................. CYCLE   48 ..............................
........................................................................

 iter      E             dE          RMSdq      gap      omega  full diag
   1    -22.8143749 -0.228144E+02  0.590E-03    2.83       0.0  T
   2    -22.8143750 -0.499312E-08  0.350E-03    2.83       7.4  T
   3    -22.8143749  0.187969E-08  0.646E-04    2.83      40.0  T
   4    -22.8143750 -0.320423E-08  0.152E-04    2.83     169.5  T
     SCC iter.                  ...        0 min,  0.008 sec
     gradient                   ...        0 min,  0.001 sec
 * total energy  :   -22.5323142 Eh     change       -0.4283834E-06 Eh
   gradient norm :     0.0001485 Eh/α   predicted    -0.2053892E-06 ( -52.05%)
   displ. norm   :     0.0136070 α      lambda       -0.1899337E-06
   maximum displ.:     0.0088153 α      in ANC's #3, #6, #2, ...

........................................................................
.............................. CYCLE   49 ..............................
........................................................................

 iter      E             dE          RMSdq      gap      omega  full diag
   1    -22.8143636 -0.228144E+02  0.371E-03    2.83       0.0  T
   2    -22.8143636 -0.145746E-08  0.221E-03    2.83      11.7  T
   3    -22.8143636 -0.351974E-09  0.168E-04    2.83     153.9  T
   4    -22.8143636 -0.101718E-09  0.873E-05    2.83     295.8  T
     SCC iter.                  ...        0 min,  0.002 sec
     gradient                   ...        0 min,  0.001 sec
 * total energy  :   -22.5323143 Eh     change       -0.1909628E-06 Eh
   gradient norm :     0.0000956 Eh/α   predicted    -0.9570843E-07 ( -49.88%)
   displ. norm   :     0.0075390 α      lambda       -0.8871987E-07
   maximum displ.:     0.0046921 α      in ANC's #6, #3, #2, ...

........................................................................
.............................. CYCLE   50 ..............................
........................................................................

 iter      E             dE          RMSdq      gap      omega  full diag
   1    -22.8143612 -0.228144E+02  0.217E-03    2.83       0.0  T
   2    -22.8143612 -0.881183E-09  0.129E-03    2.83      20.1  T
   3    -22.8143612  0.154692E-09  0.242E-04    2.83     106.9  T
   4    -22.8143612 -0.445731E-09  0.757E-05    2.83     341.1  T
     SCC iter.                  ...        0 min,  0.004 sec
     gradient                   ...        0 min,  0.002 sec
 * total energy  :   -22.5323144 Eh     change       -0.9462648E-07 Eh
   gradient norm :     0.0000945 Eh/α   predicted    -0.4417897E-07 ( -53.31%)
   displ. norm   :     0.0065885 α      lambda       -0.7536124E-07
   maximum displ.:     0.0047678 α      in ANC's #2, #6, #3, ...

   *** GEOMETRY OPTIMIZATION CONVERGED AFTER 50 ITERATIONS ***

------------------------------------------------------------------------
 total energy gain   :        -0.0084095 Eh       -5.2770 kcal/mol
 total RMSD          :         0.9227264 a0        0.4883 Å
 total power (kW/mol):        -0.4415828 (step)  -20.8407 (real)
------------------------------------------------------------------------

 ANCopt (total)                0 d,  0 h,  0 min,  1.059 sec
 optimizer setup                ...        0 min,  0.000 sec (  0.011%)
 model hessian                  ...        0 min,  0.012 sec (  1.172%)
 ANC generation                 ...        0 min,  0.001 sec (  0.128%)
 coordinate transformation      ...        0 min,  0.001 sec (  0.068%)
 single point calculation       ...        0 min,  0.990 sec ( 93.423%)
 optimization log               ...        0 min,  0.005 sec (  0.501%)
 hessian update                 ...        0 min,  0.040 sec (  3.754%)
 rational function              ...        0 min,  0.007 sec (  0.660%)

================
 final structure:
================
15
 xtb: 6.7.1 (edcfbbe)
C           -2.08152046790408        0.78069236533724        0.04206991458410
N           -1.40701452644232       -0.49599354651629        0.06554831672025
C           -0.09950708476926       -0.74463058050096       -0.18284625074807
N            0.44333251449485       -1.89839831778502       -0.22276381551340
C            0.82821081279203        0.41518627657334       -0.46263758059587
C            2.19118589232640        0.25159519026908        0.13234626837527
O            0.49245515253825        1.35876361725476       -1.14106817448653
H           -1.42354430953571        1.56256802355141        0.41652278867032
H           -2.96154987745123        0.72388754138466        0.68155779090791
H           -2.39207645034780        1.05311181821926       -0.97130883125653
H           -2.00777553113597       -1.30818771066132        0.11683371362760
H           -0.20619367627919       -2.67211006090998       -0.09071170264243
H            2.11537306097135        0.33262457619506        1.21576129357045
H            2.86982416785365        1.01033717993824       -0.24776734196365
H            2.54554171388884       -0.75081394304958       -0.09521268064932
 
 Bond Distances (Angstroems)
 ---------------------------
C1-N2=1.4441         C1-H8=1.0883         C1-H9=1.0893         C1-H10=1.0943        N2-C1=1.4441         N2-C3=1.3539         
N2-H11=1.0115        C3-N2=1.3539         C3-N4=1.2757         C3-C5=1.5113         N4-C3=1.2757         N4-H12=1.0188        
C5-C3=1.5113         C5-C6=1.4962         C5-O7=1.2097         C6-C5=1.4962         C6-H13=1.0891        C6-H14=1.0866        
C6-H15=1.0873        O7-C5=1.2097         H8-C1=1.0883         H9-C1=1.0893         H10-C1=1.0943        H11-N2=1.0115        
H12-N4=1.0188        H13-C6=1.0891        H14-C6=1.0866        H15-C6=1.0873        
 C  H  Rav=1.0892 sigma=0.0025  Rmin=1.0866  Rmax=1.0943     6
 C  C  Rav=1.5037 sigma=0.0076  Rmin=1.4962  Rmax=1.5113     2
 N  H  Rav=1.0152 sigma=0.0036  Rmin=1.0115  Rmax=1.0188     2
 N  C  Rav=1.3579 sigma=0.0688  Rmin=1.2757  Rmax=1.4441     3
 O  C  Rav=1.2097 sigma=0.0000  Rmin=1.2097  Rmax=1.2097     1
 
 selected bond angles (degree)
 --------------------
H8-C1-N2=110.31                H9-C1-N2=108.77                H9-C1-H8=108.90                H10-C1-N2=111.57               
H10-C1-H8=108.14               H10-C1-H9=109.11               C3-N2-C1=127.62                H11-N2-C1=115.68               
H11-N2-C3=115.81               N4-C3-N2=125.64                C5-C3-N2=119.07                C5-C3-N4=115.28                
H12-N4-C3=114.30               C6-C5-C3=113.68                O7-C5-C3=122.14                O7-C5-C6=124.14                
H13-C6-C5=108.91               H14-C6-C5=110.70               H14-C6-H13=109.85              H15-C6-C5=108.33               
H15-C6-H13=107.43              H15-C6-H14=111.53              
 
 selected dihedral angles (degree)
 ---------------------------------
C3-N2-C1-H8=323.97            C3-N2-C1-H9=204.59            C3-N2-C1-H10= 84.19           H11-N2-C1-H8=155.33           
H11-N2-C1-H9= 35.95           H11-N2-C1-H10=275.55          N4-C3-N2-C1=184.05            N4-C3-N2-H11=352.68           
C5-C3-N2-C1=  3.07            C5-C3-N2-H11=171.70           H12-N4-C3-N2=  2.74           H12-N4-C3-C5=183.69           
C6-C5-C3-N2=142.11            C6-C5-C3-N4=321.23            O7-C5-C3-N2=319.99            O7-C5-C3-N4=139.11            
H13-C6-C5-C3=290.26           H13-C6-C5-O7=112.42           H14-C6-C5-C3=169.39           H14-C6-C5-O7=351.55           
H15-C6-C5-C3= 46.81           H15-C6-C5-O7=228.97           
           -------------------------------------------------
          |                Final Singlepoint                |
           -------------------------------------------------

          ...................................................
          :                      SETUP                      :
          :.................................................:
          :  # basis functions                  36          :
          :  # atomic orbitals                  36          :
          :  # shells                           22          :
          :  # electrons                        40          :
          :  max. iterations                    40          :
          :  Hamiltonian                  GFN2-xTB          :
          :  restarted?                      false          :
          :  GBSA solvation                   true          :
          :  PC potential                    false          :
          :  electronic temp.          300.0000000     K    :
          :  accuracy                    1.0000000          :
          :  -> integral cutoff          0.2500000E+02      :
          :  -> integral neglect         0.1000000E-07      :
          :  -> SCF convergence          0.1000000E-05 Eh   :
          :  -> wf. convergence          0.1000000E-03 e    :
          :  Broyden damping             0.4000000          :
          :  net charge                          0          :
          :  unpaired electrons                  0          :
          ...................................................

 iter      E             dE          RMSdq      gap      omega  full diag
   1    -22.8143612 -0.228144E+02  0.297E-05    2.83       0.0  T
   2    -22.8143612 -0.247624E-11  0.158E-05    2.83    1632.0  T
   3    -22.8143612 -0.763833E-12  0.986E-06    2.83    2617.9  T

   *** convergence criteria satisfied after 3 iterations ***

         #    Occupation            Energy/Eh            Energy/eV
      -------------------------------------------------------------
         1        2.0000           -0.7197730             -19.5860
       ...           ...                  ...                  ...
        14        2.0000           -0.4815763             -13.1044
        15        2.0000           -0.4740085             -12.8984
        16        2.0000           -0.4715818             -12.8324
        17        2.0000           -0.4657373             -12.6734
        18        2.0000           -0.4077814             -11.0963
        19        2.0000           -0.3844812             -10.4623
        20        2.0000           -0.3800877             -10.3427 (HOMO)
        21                         -0.2759590              -7.5092 (LUMO)
        22                         -0.1804472              -4.9102
        23                         -0.0003222              -0.0088
        24                          0.0608339               1.6554
        25                          0.1229505               3.3457
       ...                                ...                  ...
        36                          0.6604070              17.9706
      -------------------------------------------------------------
                  HL-Gap            0.1041287 Eh            2.8335 eV
             Fermi-level           -0.3280233 Eh           -8.9260 eV

 SCC (total)                   0 d,  0 h,  0 min,  0.004 sec
 SCC setup                      ...        0 min,  0.000 sec (  5.753%)
 Dispersion                     ...        0 min,  0.000 sec (  1.983%)
 classical contributions        ...        0 min,  0.000 sec (  0.409%)
 integral evaluation            ...        0 min,  0.001 sec ( 12.913%)
 iterations                     ...        0 min,  0.002 sec ( 42.388%)
 molecular gradient             ...        0 min,  0.001 sec ( 33.026%)
 printout                       ...        0 min,  0.000 sec (  2.513%)

         :::::::::::::::::::::::::::::::::::::::::::::::::::::
         ::                     SUMMARY                     ::
         :::::::::::::::::::::::::::::::::::::::::::::::::::::
         :: total energy             -22.532314439512 Eh    ::
         :: total w/o Gsasa/hb       -22.523508400809 Eh    ::
         :: gradient norm              0.000094900512 Eh/a0 ::
         :: HOMO-LUMO gap              2.833485476513 eV    ::
         ::.................................................::
         :: SCC energy               -22.814337943110 Eh    ::
         :: -> isotropic ES            0.048269426263 Eh    ::
         :: -> anisotropic ES          0.003261587289 Eh    ::
         :: -> anisotropic XC          0.013377078120 Eh    ::
         :: -> dispersion             -0.009159305380 Eh    ::
         :: -> Gsolv                  -0.011793214601 Eh    ::
         ::    -> Gelec               -0.002987175898 Eh    ::
         ::    -> Gsasa               -0.011014181842 Eh    ::
         ::    -> Ghb                  0.000000000000 Eh    ::
         ::    -> Gshift               0.002208143139 Eh    ::
         :: repulsion energy           0.282023503598 Eh    ::
         :: add. restraining           0.000000000000 Eh    ::
         :: total charge               0.000000000000 e     ::
         :::::::::::::::::::::::::::::::::::::::::::::::::::::

           -------------------------------------------------
          |                Property Printout                |
           -------------------------------------------------

    * Orbital Energies and Occupations

         #    Occupation            Energy/Eh            Energy/eV
      -------------------------------------------------------------
         1        2.0000           -0.7197730             -19.5860
       ...           ...                  ...                  ...
         8        2.0000           -0.5554504             -15.1146
         9        2.0000           -0.5431755             -14.7806
        10        2.0000           -0.5330348             -14.5046
        11        2.0000           -0.5299855             -14.4216
        12        2.0000           -0.5187577             -14.1161
        13        2.0000           -0.4951270             -13.4731
        14        2.0000           -0.4815763             -13.1044
        15        2.0000           -0.4740085             -12.8984
        16        2.0000           -0.4715818             -12.8324
        17        2.0000           -0.4657373             -12.6734
        18        2.0000           -0.4077814             -11.0963
        19        2.0000           -0.3844812             -10.4623
        20        2.0000           -0.3800877             -10.3427 (HOMO)
        21                         -0.2759590              -7.5092 (LUMO)
        22                         -0.1804472              -4.9102
        23                         -0.0003222              -0.0088
        24                          0.0608339               1.6554
        25                          0.1229505               3.3457
        26                          0.1383237               3.7640
        27                          0.1593311               4.3356
        28                          0.1720607               4.6820
        29                          0.1893334               5.1520
        30                          0.2023384               5.5059
        31                          0.2201409               5.9903
       ...                                ...                  ...
        36                          0.6604070              17.9706
      -------------------------------------------------------------
                  HL-Gap            0.1041287 Eh            2.8335 eV
             Fermi-level           -0.3280233 Eh           -8.9260 eV

     #   Z          covCN         q      C6AA      α(0)
     1   6 C        3.684    -0.039    21.471     6.634
     2   7 N        2.686    -0.165    24.579     7.363
     3   6 C        2.804     0.144    24.853     8.167
     4   7 N        1.788    -0.396    31.205     8.274
     5   6 C        2.822     0.241    22.982     7.855
     6   6 C        3.755    -0.144    23.343     6.889
     7   8 O        0.857    -0.369    21.065     6.154
     8   1 H        0.925     0.062     2.181     2.309
     9   1 H        0.925     0.057     2.231     2.336
    10   1 H        0.924     0.055     2.256     2.349
    11   1 H        0.860     0.172     1.260     1.758
    12   1 H        0.860     0.127     1.572     1.964
    13   1 H        0.925     0.082     1.958     2.188
    14   1 H        0.925     0.072     2.066     2.248
    15   1 H        0.925     0.101     1.772     2.081

 Mol. C6AA /au·bohr⁶  :       2051.737444
 Mol. C8AA /au·bohr⁸  :      44734.883883
 Mol. α(0) /au        :         68.569371


Wiberg/Mayer (AO) data.
largest (>0.10) Wiberg bond orders for each atom

 ---------------------------------------------------------------------------
     #   Z sym  total        # sym  WBO       # sym  WBO       # sym  WBO
 ---------------------------------------------------------------------------
     1   6 C    3.969 --     2 N    1.007     9 H    0.982     8 H    0.979
                            10 H    0.973
     2   7 N    3.429 --     3 C    1.232     1 C    1.007    11 H    0.937
                             4 N    0.219
     3   6 C    3.970 --     4 N    1.693     2 N    1.232     5 C    0.953
     4   7 N    2.972 --     3 C    1.693    12 H    0.950     2 N    0.219
     5   6 C    3.912 --     7 O    1.843     6 C    1.023     3 C    0.953
     6   6 C    3.991 --     5 C    1.023    14 H    0.981    15 H    0.949
                            13 H    0.947
     7   8 O    2.065 --     5 C    1.843
     8   1 H    0.996 --     1 C    0.979
     9   1 H    0.997 --     1 C    0.982
    10   1 H    0.997 --     1 C    0.973
    11   1 H    0.970 --     2 N    0.937
    12   1 H    0.984 --     4 N    0.950
    13   1 H    0.993 --     6 C    0.947
    14   1 H    0.994 --     6 C    0.981
    15   1 H    0.990 --     6 C    0.949
 ---------------------------------------------------------------------------

Topologies differ in total number of bonds
Writing topology from bond orders to xtbtopo.mol

molecular dipole:
                 x           y           z       tot (Debye)
 q only:       -0.565      -0.161       0.816
   full:       -0.994      -0.288       0.914       3.510
molecular quadrupole (traceless):
                xx          xy          yy          xz          yz          zz
 q only:        8.654       1.300      -5.002       1.109       2.226      -3.652
  q+dip:        8.950       4.912      -5.229       1.316       2.582      -3.722
   full:        8.412       4.526      -5.426       1.217       3.081      -2.986

           -------------------------------------------------
          |                Geometry Summary                 |
           -------------------------------------------------

      molecular mass/u    :      100.1192809
   center of mass at/Å    :        0.0297487      -0.0340137      -0.2505265
  moments of inertia/u·Å² :        0.1357746E+03   0.2101759E+03   0.3120821E+03
rotational constants/cm⁻¹ :        0.1241590E+00   0.8020725E-01   0.5401666E-01

 * 11 selected distances

     #   Z          #   Z                                           value/Å
     1   6 C        2   7 N                                       1.4441042 (max)
     2   7 N        3   6 C                                       1.3539189
     3   6 C        4   7 N                                       1.2757149
     5   6 C        7   8 O                                       1.2096852
     1   6 C        8   1 H                                       1.0883370
     1   6 C        9   1 H                                       1.0893225
     1   6 C       10   1 H                                       1.0943464
     2   7 N       11   1 H                                       1.0115352 (min)
     6   6 C       13   1 H                                       1.0890830
     6   6 C       14   1 H                                       1.0866121
     6   6 C       15   1 H                                       1.0872789

 * 4 distinct bonds (by element types)

   Z      Z             #   av. dist./Å        max./Å        min./Å
   1 H    6 C           6     1.0891633     1.0943464     1.0866121
   1 H    7 N           1     1.0115352     1.0115352     1.0115352
   6 C    7 N           3     1.3579126     1.4441042     1.2757149
   6 C    8 O           1     1.2096852     1.2096852     1.2096852


optimized geometry written to: xtbopt.xyz


           -------------------------------------------------
          | TOTAL ENERGY              -22.532314439512 Eh   |
          | GRADIENT NORM               0.000094900512 Eh/α |
          | HOMO-LUMO GAP               2.833485476513 eV   |
           -------------------------------------------------

------------------------------------------------------------------------
 * finished run on 2024/08/07 at 21:10:46.805     
------------------------------------------------------------------------
 total:
 * wall-time:     0 d,  0 h,  0 min,  1.093 sec
 *  cpu-time:     0 d,  0 h,  0 min,  6.457 sec
 * ratio c/w:     5.910 speedup
 SCF:
 * wall-time:     0 d,  0 h,  0 min,  0.015 sec
 *  cpu-time:     0 d,  0 h,  0 min,  0.111 sec
 * ratio c/w:     7.190 speedup
 ANC optimizer:
 * wall-time:     0 d,  0 h,  0 min,  1.065 sec
 *  cpu-time:     0 d,  0 h,  0 min,  6.273 sec
 * ratio c/w:     5.891 speedup

