15
 energy: -22.523904939702 gnorm: 0.076619357256 xtb: 6.7.1 (edcfbbe)
C           -2.14449177800000        0.74610737010000       -0.10673549560000
N           -1.47653067860000       -0.52196387250000        0.09908548500000
C           -0.09517063990000       -0.70335225920000        0.02997613350000
N            0.39440658370000       -1.88546653960000       -0.01872248470000
C            0.81099228630000        0.45822027730000        0.01385726620000
C            2.27824077180000        0.21156600570000       -0.06171767350000
O            0.38825842350000        1.59010919270000        0.07178270700000
H           -1.67955723590000        1.50196594550000        0.52545513680000
H           -3.20433000090000        0.68955055790000        0.14449157830000
H           -2.03741248730000        1.05985883680000       -1.14513707370000
H           -2.07364431740000       -1.33287751150000       -0.05735153020000
H           -0.22185904910000       -2.65389586280000        0.00272989240000
H            2.75622664790000        0.48076834550000        0.87939586710000
H            2.72186349940000        0.81560179730000       -0.85256137720000
H            2.48974936550000       -0.83755985390000       -0.26822472280000
15
 energy: -22.528674486481 gnorm: 0.036512667580 xtb: 6.7.1 (edcfbbe)
C           -2.16262214188297        0.74981359513823       -0.10840619356643
N           -1.46139195383255       -0.50230772526723        0.08956521987747
C           -0.09869570710925       -0.69143094977496        0.01619704560018
N            0.42304812815369       -1.85790011773465       -0.00867014179724
C            0.82114796167715        0.48153386979053        0.01462831963754
C            2.28407750642468        0.17684382495211       -0.06464595301175
O            0.42595802616585        1.62893804883397        0.06143535550096
H           -1.73504763756655        1.51826009008603        0.53357296864851
H           -3.21586060360029        0.62750078575799        0.14584262978232
H           -2.07954488624887        1.08755034001583       -1.14614389237617
H           -2.03275795488724       -1.32659254870505       -0.05227609769203
H           -0.20838543952330       -2.64347744134713        0.00306906562492
H            2.75140636010341        0.45554053848301        0.87858170981464
H            2.72980000093158        0.79203934963071       -0.84540925090512
H            2.46560973219465       -0.87767923055940       -0.26101707653781
15
 energy: -22.529996131279 gnorm: 0.009159606620 xtb: 6.7.1 (edcfbbe)
C           -2.17394014375323        0.75314377406750       -0.10798129660402
N           -1.44922083641472       -0.48623487182819        0.07818462199928
C           -0.10526341039748       -0.68467581516434        0.00878040390992
N            0.44660877587617       -1.83647838459650       -0.00312378982097
C            0.82615144920092        0.49828002003417       -0.00036255410941
C            2.28775643308438        0.15677060900881       -0.06599812424236
O            0.44370840841273        1.64826633407267        0.04890039991775
H           -1.77035169365083        1.52896122248074        0.54061760877469
H           -3.22045192390567        0.58132723290362        0.14858660580899
H           -2.11176560197690        1.10745275284415       -1.14365647813390
H           -2.00227485346520       -1.32402479107496       -0.04370992235598
H           -0.19717019670064       -2.62700530183442        0.00347833689836
H            2.74483471280204        0.43250597244167        0.88359090901939
H            2.75085838732332        0.77075258223571       -0.83703204948869
H            2.43726188456509       -0.90040890629065       -0.25395096297306
15
 energy: -22.530142889290 gnorm: 0.004383784394 xtb: 6.7.1 (edcfbbe)
C           -2.18148564337305        0.75237704142847       -0.10651638602668
N           -1.44681908329432       -0.48200797273698        0.06655135693875
C           -0.10567077935518       -0.68137648379260        0.00174057706415
N            0.45103313567042       -1.83104621479487       -0.00518065039934
C            0.83200320340766        0.50303770091452       -0.00487719907048
C            2.29245070052762        0.15506525247466       -0.06513151477375
O            0.44922455650103        1.65157305225373        0.03688498072940
H           -1.78332430730522        1.52595283222488        0.54706214310198
H           -3.22423952341473        0.56970190768646        0.15071519766053
H           -2.12526460125998        1.11462722078617       -1.13898648511788
H           -1.99691068323129       -1.32506909741114       -0.04041461291627
H           -0.19728160767498       -2.61804023472709        0.01086426009750
H            2.74528437183686        0.42497143422329        0.88815747869121
H            2.76752770064555        0.76202186743998       -0.83401451361208
H            2.43021395131959       -0.90315587666950       -0.25053092376705
15
 energy: -22.530220996991 gnorm: 0.003568353580 xtb: 6.7.1 (edcfbbe)
C           -2.18631285881850        0.75147793054058       -0.10372091719514
N           -1.44448344878068       -0.47961314937249        0.05375036168688
C           -0.10417263799976       -0.67909227908010       -0.00384883046658
N            0.45258821844030       -1.82909974068778       -0.00633085450888
C            0.83669980495066        0.50682409969179       -0.01769820422156
C            2.29601419532850        0.15539710535084       -0.06307869485959
O            0.44960074468133        1.65330090718439        0.01593886848601
H           -1.79141877364482        1.52081630285319        0.55657847282750
H           -3.22605080753979        0.56064476578999        0.15350140835257
H           -2.13476740739972        1.12327447011417       -1.13215122808052
H           -1.99409539899209       -1.32608389296892       -0.03477356286667
H           -0.20017122201494       -2.61103747912482        0.01663963560829
H            2.74078023613666        0.41916700830567        0.89588626624707
H            2.78521486385760        0.75622819903662       -0.82746969741803
H            2.42731588279521       -0.90357181833316       -0.24689931499134
15
 energy: -22.530278401901 gnorm: 0.003561856682 xtb: 6.7.1 (edcfbbe)
C           -2.18778388836880        0.75124863150808       -0.09973590197244
N           -1.44205929309239       -0.47907768992803        0.03902125392666
C           -0.10174641189836       -0.67844867061413       -0.00950762100653
N            0.45289102872424       -1.83005746866190       -0.00531573640337
C            0.83926621634468        0.50876753245959       -0.03004887858607
C            2.29741744341739        0.15634723892541       -0.06057702799252
O            0.44600452711077        1.65364960164469       -0.01389450513750
H           -1.79488109388831        1.51394463254528        0.57001065973816
H           -3.22602604755055        0.55358086986691        0.15609513425685
H           -2.13879579316845        1.13624469233265       -1.12305352387901
H           -1.99258913818596       -1.32664445006872       -0.03094720798095
H           -0.20324957529761       -2.60765943798352        0.02279673662585
H            2.73256156737071        0.41663328565027        0.90378090133291
H            2.79888027314003        0.75345104906197       -0.81956623663580
H            2.42685157634256       -0.90334738743859       -0.24273433768625
15
 energy: -22.530354682037 gnorm: 0.004394057824 xtb: 6.7.1 (edcfbbe)
C           -2.18709526850331        0.75157485047373       -0.09174721944884
N           -1.43887791547965       -0.47990668797508        0.01782188067744
C           -0.09838006189053       -0.67916150390738       -0.01738613827795
N            0.45287934252663       -1.83304750967639       -0.00217065013983
C            0.84015056357889        0.50954167525139       -0.05392937913242
C            2.29741183986476        0.15778700103241       -0.05640175167145
O            0.43893045943504        1.65267896187386       -0.06988371592993
H           -1.79691316695047        1.50172745799668        0.59502841807652
H           -3.22497945186024        0.54566925905190        0.15836197910913
H           -2.13784302006417        1.15973729517008       -1.10603318317647
H           -1.99131877358466       -1.32720571060216       -0.02616395338921
H           -0.20656342355819       -2.60654761199912        0.03211038108321
H            2.71429871434621        0.41440059813836        0.91738634083737
H            2.81653256280698        0.75388831895652       -0.80426339300173
H            2.42850899033267       -0.90250396448484       -0.23640590701585
15
 energy: -22.530447448269 gnorm: 0.007577157272 xtb: 6.7.1 (edcfbbe)
C           -2.18332165614755        0.75275182053799       -0.07915526340524
N           -1.43605389265557       -0.48246468218134       -0.00833927425660
C           -0.09536674043750       -0.68191841431939       -0.02857389902198
N            0.45273673820261       -1.83764414777592        0.00205992313627
C            0.83823113510913        0.50777888022034       -0.08938659744409
C            2.29533464934860        0.16002005805099       -0.05065296230898
O            0.42922881524448        1.64862920887961       -0.15592788998362
H           -1.79642724010879        1.48278962396445        0.63314931659800
H           -3.22268021404535        0.53907728230468        0.15858515790656
H           -2.12818361472477        1.19411014245394       -1.07970397681741
H           -1.99155736137776       -1.32782593594821       -0.01968058742319
H           -0.20853090013547       -2.60881544751930        0.04557717293997
H            2.68326644026399        0.41243564972888        0.93713464982514
H            2.83678076290646        0.75988895312126       -0.78009091639525
H            2.43328446955740       -0.90018056221801       -0.22867114474958
15
 energy: -22.530549631181 gnorm: 0.010739995537 xtb: 6.7.1 (edcfbbe)
C           -2.17646494860390        0.75452372644399       -0.06524129141582
N           -1.43514415660466       -0.48608498745230       -0.02964757361183
C           -0.09437208623169       -0.68631357031578       -0.04087756107048
N            0.45236459398301       -1.84219218774214        0.00414469690838
C            0.83334301508857        0.50286642132882       -0.12980551823328
C            2.29095342443967        0.16308337224018       -0.04496859641962
O            0.42074394530379        1.63998081069982       -0.24994711228314
H           -1.79173192243947        1.46199947707830        0.67257527873472
H           -3.21920655587983        0.53827820481878        0.15593060410208
H           -2.10992888645977        1.22752561625002       -1.05081316274491
H           -1.99420135515899       -1.32801361179719       -0.00893420781373
H           -0.20771832351896       -2.61432505618716        0.05885796021065
H            2.64347572415754        0.40999486802350        0.95890217316437
H            2.85375495229365        0.77308842552119       -0.75049828823852
H            2.44087397063094       -0.89577907961006       -0.22335369268887
15
 energy: -22.530703152140 gnorm: 0.008068355539 xtb: 6.7.1 (edcfbbe)
C           -2.16702618002789        0.75667430721123       -0.05527907644586
N           -1.43760800295043       -0.49009179945816       -0.03501720585348
C           -0.09679871298589       -0.69174639382853       -0.05029655245264
N            0.45197020096463       -1.84513883680971        0.00203253822868
C            0.82582350093020        0.49458999169988       -0.16113108786618
C            2.28416239338656        0.16648120043065       -0.04157498874724
O            0.41767831856330        1.62660013186824       -0.31991792597206
H           -1.78222892119980        1.44664231544281        0.69798283126974
H           -3.21500414050091        0.54765667506041        0.14945129073195
H           -2.08477495680281        1.24653156421670       -1.02963378498559
H           -1.99952533397575       -1.32746217464733        0.00645479193855
H           -0.20245413638208       -2.62297181364444        0.06638934720846
H            2.60466778372777        0.40639959555550        0.97487284023225
H            2.85761444025387        0.79371994730176       -0.72272198102594
H            2.45024513799912       -0.88925228109906       -0.22528732766064
15
 energy: -22.530840078453 gnorm: 0.010286327821 xtb: 6.7.1 (edcfbbe)
C           -2.15943633854500        0.75962576204757       -0.04280748447031
N           -1.44024675583573       -0.49322951814434       -0.04285439963695
C           -0.10053395028186       -0.69729447755044       -0.06496127906021
N            0.45507398119406       -1.84613985225273       -0.00293854733807
C            0.81984487002635        0.48717729224960       -0.20213996175948
C            2.27823411330001        0.16995262169877       -0.03524468233353
O            0.41694409248845        1.61232438325174       -0.42166159886603
H           -1.78069722643075        1.42788475029607        0.73375430344495
H           -3.21253415889172        0.55521117485352        0.14222404811822
H           -2.05860784642349        1.27387424245845       -1.00257908776374
H           -2.00416900723070       -1.32900949530129        0.03340455317178
H           -0.19355205392699       -2.62920128075449        0.07411402990434
H            2.55518765507820        0.39359107079024        0.99849943167362
H            2.87039817079868        0.81524390238249       -0.68372183930024
H            2.46083584568038       -0.88137814672521       -0.22676377718432
15
 energy: -22.530945217475 gnorm: 0.008723282449 xtb: 6.7.1 (edcfbbe)
C           -2.15427423511373        0.76239837862239       -0.03811237415247
N           -1.44608133078296       -0.49453341399930       -0.02309261171543
C           -0.10774572237806       -0.70118890677114       -0.07229486077218
N            0.45951862871992       -1.84287919629231       -0.01612469956779
C            0.81612842278969        0.48040694405316       -0.22337200747249
C            2.27274882985629        0.17324369231124       -0.03119968636615
O            0.42715256860722        1.59614053524749       -0.47752611784637
H           -1.78494498272532        1.42432490048012        0.74435558378079
H           -3.21265551317774        0.57097333571792        0.13109038758104
H           -2.03286773897721        1.27308127432742       -0.99307190452971
H           -2.00771329983533       -1.32937324470053        0.06564482144141
H           -0.18051252506748       -2.63296869154225        0.06949017814313
H            2.51924088085573        0.37224804836429        1.01108446880512
H            2.86838529014248        0.83831236164973       -0.65159258019564
H            2.47036211808637       -0.87155358816827       -0.23895488853326
15
 energy: -22.531055897677 gnorm: 0.013448368480 xtb: 6.7.1 (edcfbbe)
C           -2.14827576398053        0.76491849983930       -0.02141270960661
N           -1.44652478593323       -0.49696457244787       -0.02719413664172
C           -0.10920780266798       -0.70527976571794       -0.08735299370123
N            0.46152236494565       -1.84470963425541       -0.02598249430851
C            0.81411462354024        0.47591863901526       -0.27582423095955
C            2.26776406747797        0.17883958060958       -0.02168295457372
O            0.42575055298612        1.57986743538011       -0.60478529163348
H           -1.79142927617186        1.40693476200279        0.78717308790576
H           -3.21110627332569        0.57408421227530        0.12300047001501
H           -2.00575665836176        1.29863427370702       -0.96180449960201
H           -2.00826408455607       -1.32870249318844        0.09743507347712
H           -0.17596949688632       -2.63455482182099        0.07769720340491
H            2.46231100791910        0.34902670916935        1.04194731668634
H            2.89085145220656        0.86127659284877       -0.60084429505859
H            2.48096146380766       -0.86065698811688       -0.24404583680372
15
 energy: -22.531166948275 gnorm: 0.005901237494 xtb: 6.7.1 (edcfbbe)
C           -2.15136658560521        0.76420482604156       -0.02342737300924
N           -1.44263024935160       -0.49515359272428       -0.02365637688930
C           -0.10536319051376       -0.70267048722343       -0.08463149182645
N            0.45979103144494       -1.84617964361319       -0.02718441160437
C            0.81883584876472        0.47965985830524       -0.26805219661914
C            2.26935177512863        0.17908139977829       -0.02119501064975
O            0.42489149811796        1.58130614430603       -0.58774792531878
H           -1.79747830728245        1.41422938918033        0.78071734316855
H           -3.21173160378363        0.56755264849766        0.12386315226577
H           -2.01334485178370        1.29248496355932       -0.96858455713315
H           -2.00364710879974       -1.32744487375949        0.09370559233449
H           -0.18249452399707       -2.63018361476378        0.07643786141866
H            2.47436534587530        0.34717115604701        1.03681724625862
H            2.88975732625744        0.85539769745204       -0.60505287411407
H            2.47780498652803       -0.86082344178339       -0.24568526968183
15
 energy: -22.531300536647 gnorm: 0.003871638828 xtb: 6.7.1 (edcfbbe)
C           -2.14995092160831        0.76526078153519       -0.01622788222217
N           -1.43719628460118       -0.49304740874447       -0.00890695676022
C           -0.10115111623606       -0.70189766566841       -0.09338585361238
N            0.45824295244997       -1.84964047113759       -0.04249735398315
C            0.82391146183954        0.47966618596152       -0.29549299344344
C            2.26618510313430        0.18441672312547       -0.01417994447589
O            0.42600608166738        1.56614889217800       -0.65263998210633
H           -1.80570215560235        1.41801887859069        0.78864243488973
H           -3.20950756770000        0.56582477666767        0.12131247726470
H           -2.00517065500976        1.28981835738120       -0.96160348708861
H           -1.99809618094135       -1.32416700243345        0.12659602417263
H           -0.18850249657003       -2.62612085572506        0.07574601932018
H            2.44132656219286        0.31779116868610        1.05520263846359
H            2.90377655329965        0.87645409691293       -0.56325762401722
H            2.48257005468518       -0.84989402802986       -0.26298380780140
15
 energy: -22.531362416021 gnorm: 0.013777539509 xtb: 6.7.1 (edcfbbe)
C           -2.14302533962720        0.76819164256561       -0.00471284803600
N           -1.43293461680410       -0.49175678046117        0.01759513687442
C           -0.09876267516788       -0.70397418816326       -0.09869583481182
N            0.45725167356379       -1.85391123081173       -0.06261419931259
C            0.82603619238842        0.47440960047497       -0.32886897596088
C            2.25772050963197        0.19196913041243       -0.00320516719379
O            0.42890271076181        1.54053590470586       -0.75937763500844
H           -1.81263583897498        1.41978293818883        0.80717532853520
H           -3.20529587661969        0.56878121531797        0.11262006874526
H           -1.97958940756450        1.29041926131359       -0.94825421531122
H           -1.99148700314273       -1.31803716820734        0.16722237514741
H           -0.19163027584721       -2.62522794882959        0.06798340423724
H            2.39100355789621        0.28354863701405        1.07545593717132
H            2.90777695288849        0.90679454747320       -0.50453992262295
H            2.49341082761742       -0.83289313169348       -0.28145974385314
15
 energy: -22.531457647216 gnorm: 0.005325330919 xtb: 6.7.1 (edcfbbe)
C           -2.14119287899660        0.76937711060166       -0.00553862429236
N           -1.43095605598161       -0.48946545252109        0.03285804389654
C           -0.09889450210990       -0.70412872046782       -0.10074998781661
N            0.45700214336330       -1.85423790741272       -0.07108230541914
C            0.82507976948081        0.47200698348829       -0.33683643072835
C            2.25535559844017        0.19307531707517       -0.00239839404892
O            0.43277163600443        1.53258190953253       -0.76741600990763
H           -1.81007790278095        1.42870170497850        0.79810558316885
H           -3.20316595824147        0.57010549812698        0.11498963238148
H           -1.97949037355568        1.28117677161737       -0.95442231089130
H           -1.98949639113790       -1.31617219167247        0.18451234833418
H           -0.19227645502291       -2.62646906908377        0.06318318227897
H            2.37684942825279        0.27000208924021        1.07980373082120
H            2.90724258311951        0.91907430318421       -0.48705220676727
H            2.49799075016581       -0.82699591738711       -0.29163254240963
15
 energy: -22.531519593811 gnorm: 0.003195512743 xtb: 6.7.1 (edcfbbe)
C           -2.13780263474331        0.77166516588641       -0.00100958358592
N           -1.42838087293222       -0.48810873551619        0.04087250531879
C           -0.09942213763570       -0.70607507160569       -0.10842067881265
N            0.45735675801867       -1.85572335124408       -0.08073505051739
C            0.82295755670210        0.46699671839722       -0.35639864209284
C            2.25163876323816        0.19584982100717        0.00415924043728
O            0.43588877838755        1.51866523627187       -0.81337469100101
H           -1.80722352814735        1.43340712204272        0.80125545333428
H           -3.19964016154350        0.57365998122938        0.11992327371870
H           -1.97565875769076        1.28157705911822       -0.95096766280662
H           -1.98816093871068       -1.31495632913474        0.20670023403073
H           -0.19104013625933       -2.62953124962383        0.05691146302586
H            2.35252591619772        0.25794429447007        1.08869556850659
H            2.90614858084145        0.93097550563716       -0.45906139634628
H            2.50755420527700       -0.81771373763578       -0.29222632460949
15
 energy: -22.531582602257 gnorm: 0.004460706975 xtb: 6.7.1 (edcfbbe)
C           -2.13109616132992        0.77514883454440        0.00628711191972
N           -1.42431705984078       -0.48660519687183        0.05741266917220
C           -0.10014925466090       -0.71033554683004       -0.11415840746305
N            0.45593721661441       -1.86027646315599       -0.09261644358507
C            0.81986564685393        0.45723990816208       -0.37895042415932
C            2.24428813581085        0.20140377562785        0.01261262252625
O            0.44157888399052        1.49422964083471       -0.87835444805994
H           -1.79863067123694        1.44458359901017        0.80293493820553
H           -3.19299018342222        0.58060079218178        0.13001416571067
H           -1.96907416726433        1.27651930378592       -0.94869128342159
H           -1.98435854146223       -1.30976590532376        0.22727102907259
H           -0.19099324995997       -2.63572949386362        0.04884660818963
H            2.31576106381593        0.23951562455732        1.09834070587423
H            2.89808343053199        0.95327961729662       -0.41771436639954
H            2.52283630255944       -0.80117606065568       -0.29691076898228
15
 energy: -22.531590286808 gnorm: 0.008311996047 xtb: 6.7.1 (edcfbbe)
C           -2.12528673091591        0.77765822174898        0.01232831052807
N           -1.42131206283169       -0.48571637908587        0.06653100006290
C           -0.10021131812541       -0.71393261884109       -0.12166040555882
N            0.45423556852565       -1.86458008122684       -0.10189250176031
C            0.81891851522182        0.44999574979662       -0.40292410515777
C            2.23821368760707        0.20698577626002        0.01951091860074
O            0.44537731296161        1.47315883974320       -0.93700664434389
H           -1.78772071253702        1.45093392987575        0.80446351455655
H           -3.18688624769619        0.58634082237456        0.14097823044392
H           -1.96538828970277        1.27337307826737       -0.94624529379880
H           -1.98301800260176       -1.30605834533823        0.24715554758453
H           -0.19186726262989       -2.63938956937012        0.04891187002636
H            2.28000139345634        0.21748188264674        1.11160454722921
H            2.89632509093351        0.97862098986186       -0.37760842918166
H            2.53536044933443       -0.78623986741303       -0.30782285063102
15
 energy: -22.531665808030 gnorm: 0.004905826746 xtb: 6.7.1 (edcfbbe)
C           -2.12050917934527        0.77893912412057        0.01295723153500
N           -1.41922183351654       -0.48533391629927        0.06343736628279
C           -0.10056487331085       -0.71794282439404       -0.12412859478660
N            0.45077001240932       -1.86950010907847       -0.10196859246522
C            0.81816384278213        0.44320755565862       -0.40659475708550
C            2.23388019299457        0.21146112081257        0.02476498005347
O            0.44754444247683        1.45794111974470       -0.95041064879461
H           -1.76019902128571        1.46095318769552        0.78853217212313
H           -3.17900221575426        0.59305360176481        0.16852144107751
H           -1.98080581192866        1.26298628493048       -0.95529834823648
H           -1.98520662099261       -1.30345841063698        0.24240762454033
H           -0.19423442537569       -2.64376930835159        0.04969321768013
H            2.26743635601779        0.21065352779811        1.11359553694449
H            2.88280173853998        0.99370135389099       -0.36003511009501
H            2.54588878728874       -0.77425987835610       -0.30914981017341
15
 energy: -22.531708530574 gnorm: 0.002380759896 xtb: 6.7.1 (edcfbbe)
C           -2.11942337013423        0.77880192684614        0.01338366190763
N           -1.42175181725206       -0.48737060890665        0.05914410035564
C           -0.10116088162325       -0.71896141183025       -0.12575415448601
N            0.45189177825204       -1.86970327643965       -0.10249774559488
C            0.81865092320473        0.44402659977713       -0.40858636924999
C            2.23259604987097        0.21279926261549        0.02807053609487
O            0.44731446181492        1.45603870739980       -0.95813368551752
H           -1.75224583599650        1.45735186557587        0.78792092001337
H           -3.17836275537684        0.59671704064293        0.17647164922870
H           -1.98444059166332        1.26469639111375       -0.95430759185751
H           -1.98763818792509       -1.30548653687512        0.23680483966205
H           -0.19301283549033       -2.64311378308055        0.05135100494096
H            2.26686507848612        0.21357722838016        1.11669130230095
H            2.88212026340908        0.99244781386833       -0.36025563812607
H            2.54533911142354       -0.77318878978745       -0.30397912107213
15
 energy: -22.531757097777 gnorm: 0.002349851805 xtb: 6.7.1 (edcfbbe)
C           -2.11535519195219        0.77887801140016        0.01574029515743
N           -1.42605321835295       -0.49181892353283        0.04902031569317
C           -0.10239437827402       -0.72153751812141       -0.12825320745383
N            0.45353257548114       -1.87065170405662       -0.10246019524558
C            0.81900057236448        0.44413784708895       -0.41342424082959
C            2.22906259862130        0.21693769314165        0.03496215171909
O            0.44702552712743        1.44845486530520       -0.97702009113386
H           -1.73118425863145        1.45205487013676        0.78613200558919
H           -3.17412967365492        0.60485265085511        0.19705490043131
H           -1.99375805982258        1.26631543172534       -0.95266177083370
H           -1.99245969357019       -1.30995687135422        0.22231477197177
H           -0.19186938868001       -2.64309702700196        0.05169832019272
H            2.26148791088230        0.22305534213120        1.12312871955698
H            2.88090205090875        0.99190824534046       -0.35877122683070
H            2.54293401855271       -0.77090048375788       -0.29113703938436
15
 energy: -22.531788926826 gnorm: 0.003511156310 xtb: 6.7.1 (edcfbbe)
C           -2.11111351546045        0.77924313235224        0.01867039176824
N           -1.42816462626276       -0.49493284384034        0.04026813540182
C           -0.10326386090321       -0.72391533770668       -0.13079288290472
N            0.45414643736781       -1.87214809593964       -0.10302114095381
C            0.81855332222743        0.44268333012550       -0.41842707749246
C            2.22549161678024        0.22076831904853        0.04054443529180
O            0.44698070489217        1.43997940067675       -0.99448520552443
H           -1.71042100870421        1.44977304568523        0.78302142317111
H           -3.16830075970339        0.61140368480345        0.21792912361910
H           -2.00361729101886        1.26629663267334       -0.95177858892914
H           -1.99572632352813       -1.31296803552628        0.20932759127179
H           -0.19161114551686       -2.64449146149464        0.05034054591629
H            2.25299634330834        0.23292727834985        1.12857461282014
H            2.87940404752250        0.99305547718251       -0.35526403026065
H            2.54138744999919       -0.76904209708994       -0.27858362459504
15
 energy: -22.531835837449 gnorm: 0.003424898668 xtb: 6.7.1 (edcfbbe)
C           -2.10563677811163        0.77993769974693        0.02285269257045