15
 energy: -22.532314439512 gnorm: 0.000094900512 xtb: 6.7.1 (edcfbbe)
C           -2.08152046790408        0.78069236533724        0.04206991458410
N           -1.40701452644232       -0.49599354651629        0.06554831672025
C           -0.09950708476926       -0.74463058050096       -0.18284625074807
N            0.44333251449485       -1.89839831778502       -0.22276381551340
C            0.82821081279203        0.41518627657334       -0.46263758059587
C            2.19118589232640        0.25159519026908        0.13234626837527
O            0.49245515253825        1.35876361725476       -1.14106817448653
H           -1.42354430953571        1.56256802355141        0.41652278867032
H           -2.96154987745123        0.72388754138466        0.68155779090791
H           -2.39207645034780        1.05311181821926       -0.97130883125653
H           -2.00777553113597       -1.30818771066132        0.11683371362760
H           -0.20619367627919       -2.67211006090998       -0.09071170264243
H            2.11537306097135        0.33262457619506        1.21576129357045
H            2.86982416785365        1.01033717993824       -0.24776734196365
H            2.54554171388884       -0.75081394304958       -0.09521268064932
