13
 energy: -21.454063096457 gnorm: 0.067053962678 xtb: 6.7.1 (edcfbbe)
O            0.06073940580000       -1.53808342700000       -0.28754876970000
C            0.40544237990000       -0.39963996040000        0.49136067550000
C            1.66052393810000        0.18067487100000        0.12941123020000
N            2.66323769960000        0.66288039360000       -0.18776104460000
C           -0.74433717680000        0.61106705420000        0.41552742190000
C           -2.13166479760000        0.10044875370000        0.39552681660000
N           -1.52111296850000        0.61427022580000       -0.81351891940000
H           -0.07991230240000       -1.25017888810000       -1.21468365290000
H            0.48460826700000       -0.77380777240000        1.52560576360000
H           -0.54729514430000        1.57466290080000        0.90156553340000
H           -2.92497340420000        0.68531918030000        0.86667663500000
H           -2.27948122290000       -0.97897114890000        0.44272416650000
H           -1.83597966690000        1.54049608910000       -1.10518333120000
13
 energy: -21.456567744532 gnorm: 0.019073828133 xtb: 6.7.1 (edcfbbe)
O            0.10782410705734       -1.55713768214404       -0.29108742605954
C            0.39255545670326       -0.41265269357856        0.49221448454781
C            1.64531793842669        0.20475682816423        0.12250985409953
N            2.63124538416696        0.67722981838118       -0.20635342585134
C           -0.74757414359873        0.61029931953217        0.42813621376262
C           -2.13874695796938        0.11312163916773        0.39449695435063
N           -1.50268259868148        0.60747101344807       -0.80838783440347
H           -0.09182743119234       -1.25794666456658       -1.19593381719765
H            0.48775730574116       -0.78298072560449        1.52553158803634
H           -0.53881199604192        1.56058096111016        0.92027821183060
H           -2.91818138680273        0.69862209486465        0.87283325432163
H           -2.30192045949014       -0.95836060104914        0.41429678259951
H           -1.81516021151870        1.52613496397463       -1.10883231513664
13
 energy: -21.457237809532 gnorm: 0.008707592788 xtb: 6.7.1 (edcfbbe)
O            0.12788341821009       -1.56667703624918       -0.28826209363224
C            0.38802124219639       -0.43033423405513        0.50069139272692
C            1.63828648135915        0.20731079172274        0.10515489221774
N            2.60451328259509        0.72797253434353       -0.21463787361066
C           -0.74543065637712        0.59923158087656        0.43567564067245
C           -2.14362710832901        0.11971170389875        0.38918272999962
N           -1.48366376820556        0.60137440971106       -0.80682502426179
H           -0.13478450646025       -1.25291351551430       -1.17152160735249
H            0.50134446476523       -0.79581486264620        1.53304072676299
H           -0.52050497933064        1.53751314699147        0.93399503670754
H           -2.91619615284823        0.71162076989709        0.86263848106456
H           -2.31861032185982       -0.94721706698719        0.39740237416380
H           -1.78743638891533        1.51736004971081       -1.11683215055843
13
 energy: -21.457388037722 gnorm: 0.012326584881 xtb: 6.7.1 (edcfbbe)
O            0.14718661428526       -1.56516723301756       -0.28703799267543
C            0.38874499490318       -0.43930854159204        0.51211809439085
C            1.62662850395717        0.24130126927561        0.11198768020665
N            2.59414550538125        0.73215698827884       -0.24984795438488
C           -0.74602435935681        0.58705241112264        0.44620605317896
C           -2.14811231650948        0.11799515314358        0.38014543638819
N           -1.46460941280553        0.59778860526930       -0.80505034424585
H           -0.18197215013815       -1.23832978963330       -1.14761157012279
H            0.51660337491811       -0.80236607384745        1.54241371406116
H           -0.51426222221473        1.51640155138382        0.95484607939131
H           -2.92104526696382        0.71527490698500        0.84346394442476
H           -2.32949765040595       -0.94742967848598        0.38187723864167
H           -1.75799060825049        1.51376870281754       -1.12380785435460
13
 energy: -21.457568908547 gnorm: 0.007189534869 xtb: 6.7.1 (edcfbbe)
O            0.13851295107462       -1.56545100285206       -0.28599976209016
C            0.39191234457277       -0.44228354284941        0.51035186978415
C            1.62921927082464        0.23017090538889        0.10270357130720
N            2.58487244329669        0.75611471221157       -0.24059630489261
C           -0.74302819624985        0.58412309736982        0.44722720775617
C           -2.14547879254508        0.11684911108730        0.37853766563462
N           -1.45978475857869        0.59773076181977       -0.80483795787551
H           -0.19965167390030       -1.24333425436145       -1.14114964108043
H            0.52339731347690       -0.80215136316869        1.54086709097853
H           -0.51240772685808        1.51397230608914        0.95863398339726
H           -2.91990144268194        0.71747369027749        0.83770081239592
H           -2.32949122103068       -0.94918830278877        0.38240179037420
H           -1.74837550460100        1.51511215347641       -1.12613780078933
13
 energy: -21.457645884398 gnorm: 0.004354022294 xtb: 6.7.1 (edcfbbe)
O            0.13579832937648       -1.56589980927923       -0.28543988484412
C            0.39555897097606       -0.44337999496769        0.50957025734633
C            1.62917524422794        0.22965169772529        0.10020106811977
N            2.57915012810160        0.76795340272383       -0.24084915823446
C           -0.74094137911444        0.58224885737714        0.45030220961128
C           -2.14233887598880        0.11459430851793        0.37484353954619
N           -1.45295046059653        0.59866323893449       -0.80440715618433
H           -0.22362107728244       -1.24637157059860       -1.13067908663860
H            0.53149840198502       -0.80221796142152        1.53970652611435
H           -0.51560944816910        1.51231342813434        0.96614250250471
H           -2.91852103466277        0.71681125477427        0.83078466016562
H           -2.32918920876484       -0.95158512610530        0.37777601706958
H           -1.73821458328816        1.51635654588506       -1.12824896967632
13
 energy: -21.457697523167 gnorm: 0.003405423241 xtb: 6.7.1 (edcfbbe)
O            0.13710511308866       -1.56553234385578       -0.28557373375383
C            0.40050086417854       -0.44403827928285        0.51051068982430
C            1.62875515116060        0.23344851514722        0.09949192866389
N            2.57331831384240        0.77761159785578       -0.24524540786418
C           -0.73860595282466        0.57962910824850        0.45467901908549
C           -2.13896745853175        0.11158989165293        0.36911588970139
N           -1.44332608677436        0.59908045055308       -0.80414715573992
H           -0.25865303843616       -1.24497489853637       -1.11440277203291
H            0.54172754180919       -0.80349959755219        1.53990576197423
H           -0.51979115443392        1.50900365977079        0.97543915233172
H           -2.91674635239882        0.71467473370250        0.82223562805605
H           -2.32973028551792       -0.95397939874980        0.36927173978404
H           -1.72579164836180        1.51612483274620       -1.13157821513027
13
 energy: -21.457711116522 gnorm: 0.001641427955 xtb: 6.7.1 (edcfbbe)
O            0.13872409442944       -1.56483263511396       -0.28776877148501
C            0.40190555920782       -0.44371109499580        0.51112351594025
C            1.62830262135473        0.23588606144333        0.10070532947238
N            2.57238210509716        0.77799120637916       -0.24824564716987
C           -0.73803445849614        0.57903594314266        0.45601077084273
C           -2.13816484083408        0.11092631838568        0.36750902902469
N           -1.44078035900909        0.59869288845104       -0.80400587551628
H           -0.26673477190002       -1.24310090449419       -1.10795455451727
H            0.54291877234272       -0.80486598834476        1.54020571015573
H           -0.52144678061799        1.50819195674673        0.97725911885105
H           -2.91569871523699        0.71390866803581        0.82108419102329
H           -2.33066600809261       -0.95401183590767        0.36665131863127
H           -1.72291221144495        1.51502768797199       -1.13287161035296
13
 energy: -21.457711821174 gnorm: 0.002848526202 xtb: 6.7.1 (edcfbbe)
O            0.14559784459055       -1.56462826667101       -0.29124911995467
C            0.40414368967995       -0.44489712385721        0.51298128009076
C            1.62878557440645        0.23881817563296        0.10149209490134
N            2.57055332268614        0.78450136596771       -0.24966954851446
C           -0.73675376269347        0.57647692855524        0.45744089949257
C           -2.13787593904605        0.11056383608217        0.36550379919787
N           -1.43639807878054        0.59604271846628       -0.80427733165246
H           -0.28855684495954       -1.23694394216861       -1.09801511013255
H            0.54534499658967       -0.80852693709128        1.54137230828377
H           -0.52010692030347        1.50496383725496        0.97818858461103
H           -2.91488176336463        0.71454959551638        0.81810528415690
H           -2.33313085922912       -0.95344889634396        0.36372037261343
H           -1.71692625277593        1.51166698035637       -1.13589098819351
13
 energy: -21.457720623910 gnorm: 0.001097906559 xtb: 6.7.1 (edcfbbe)
O            0.14487773890558       -1.56343052106457       -0.29235663859908
C            0.40318353587649       -0.44379613208462        0.51222774975135
C            1.62976389852599        0.23742704213268        0.10270022718331
N            2.57363310928864        0.77982851636644       -0.24691479440505
C           -0.73732796223043        0.57770715893250        0.45565384799772
C           -2.13835200430472        0.11096925451459        0.36744210109338
N           -1.43982686218581        0.59555349519615       -0.80454382268164
H           -0.27984911822045       -1.23654526989025       -1.10260496201485
H            0.54205022148119       -0.80794156375657        1.54067742285652
H           -0.51964574418202        1.50699332418464        0.97473231400461
H           -2.91519707492739        0.71457074883010        0.82077731924033
H           -2.33201449648269       -0.95341072183821        0.36723331047145
H           -1.72150023474438        1.51121294017713       -1.13532154999802
13
 energy: -21.457725023603 gnorm: 0.000919629568 xtb: 6.7.1 (edcfbbe)
O            0.14469198310765       -1.56068860414726       -0.29615010492985
C            0.40235425703072       -0.44236100607418        0.51067075462487
C            1.63198737624775        0.23565791151824        0.10569680118022
N            2.57897044229241        0.77461938061318       -0.24030962921945
C           -0.73756663809389        0.57931558637249        0.45280189497837
C           -2.13837809905833        0.11116303410022        0.37056221248760
N           -1.44422805684055        0.59336121317476       -0.80524751028275
H           -0.27452187101741       -1.23408197303836       -1.10801574915394
H            0.53734274213481       -0.80809220558030        1.53898497028288
H           -0.51863477211040        1.51051486384286        0.96865198256614
H           -2.91501863735087        0.71483156922195        0.82422490148449
H           -2.32991778856794       -0.95385321312327        0.37389563673314
H           -1.72728593097394        1.50875171481969       -1.13606363585172
13
 energy: -21.457727909282 gnorm: 0.000656679625 xtb: 6.7.1 (edcfbbe)
O            0.14585962239025       -1.55890206731524       -0.29976177555453
C            0.40231381561059       -0.44213594340545        0.50949270572509
C            1.63352226699746        0.23539138793406        0.10817813545535
N            2.58205022654008        0.77362271794310       -0.23494073273128
C           -0.73722833965576        0.57984909252372        0.45118820252644
C           -2.13807197131087        0.11122270569148        0.37235479330069
N           -1.44598861888633        0.59112711912271       -0.80576614255090
H           -0.27732112622115       -1.23128008793907       -1.10937227065342
H            0.53530146937178       -0.80952645965008        1.53753682552112
H           -0.51747988493617        1.51228994748556        0.96455196189812
H           -2.91434045011572        0.71555488498403        0.82570501274365
H           -2.32905420341248       -0.95395204985530        0.37831335301704
H           -1.72976779957168        1.50587702418047       -1.13777754379736
13
 energy: -21.457731864578 gnorm: 0.000334122403 xtb: 6.7.1 (edcfbbe)
O            0.14905256225751       -1.55450377664088       -0.30987184939327
C            0.40274892071302       -0.44236422114595        0.50615052852133
C            1.63731749189179        0.23551545359402        0.11461676292683
N            2.58912030658932        0.77370716139607       -0.21989300395008
C           -0.73590668809066        0.58055378231257        0.44724115910487
C           -2.13716622278084        0.11151904199804        0.37686302756317
N           -1.44972688471884        0.58456353150845       -0.80703656145763
H           -0.28795728765669       -1.22355843627513       -1.11155156219273
H            0.53102640504936       -0.81421922116106        1.53347650830394
H           -0.51363495406520        1.51590351099567        0.95400528769665
H           -2.91183223524621        0.71847508510220        0.82932490789425
H           -2.32809079897955       -0.95365554276282        0.38974351297010
H           -1.73515560816302        1.49720190277883       -1.14336619308742
13
 energy: -21.457732141254 gnorm: 0.000195229618 xtb: 6.7.1 (edcfbbe)
O            0.14936180183232       -1.55449835519937       -0.31098951048441
C            0.40279107703263       -0.44271653265414        0.50546879279210
C            1.63742437431072        0.23559254290111        0.11515861840911
N            2.58943622781513        0.77451764780274       -0.21752374270281
C           -0.73572937714048        0.58053143689844        0.44668209201211
C           -2.13709694009237        0.11176827448637        0.37744113673903
N           -1.45030759849329        0.58387033005076       -0.80710318005839
H           -0.28851385789472       -1.22333250182655       -1.11199378335750
H            0.53077629389159       -0.81498933246423        1.53269317747477
H           -0.51297754402328        1.51612155499364        0.95270544706061
H           -2.91123640730428        0.71934478017592        0.82997976752763
H           -2.32835814623208       -0.95328304112561        0.39127635334109
H           -1.73577489690190        1.49621146766093       -1.14409264385334
13
 energy: -21.457732270084 gnorm: 0.000110759080 xtb: 6.7.1 (edcfbbe)
O            0.14937749850463       -1.55449291228421       -0.31181768481814
C            0.40294228076406       -0.44309590344675        0.50496899506646
C            1.63737699039792        0.23592704543684        0.11542308366485
N            2.58950953600450        0.77552600401412       -0.21563251753201
C           -0.73558084459804        0.58028094221797        0.44635956625080
C           -2.13717073872412        0.11201739446837        0.37792468087842
N           -1.45063908140108        0.58311641525142       -0.80708875798127
H           -0.28887038918099       -1.22316272058478       -1.11251403521053
H            0.53082704988402       -0.81561685066471        1.53212265447954
H           -0.51222959996684        1.51599600173721        0.95183992419810
H           -2.91075300095686        0.72031034585231        0.83051005977135
H           -2.32909041346844       -0.95289042168008        0.39245050813981
H           -1.73590428045877        1.49522293138229       -1.14484395200737
13
 energy: -21.457732282519 gnorm: 0.000042145699 xtb: 6.7.1 (edcfbbe)
O            0.14938295143631       -1.55467506996616       -0.31170544526440
C            0.40291841892402       -0.44311499381526        0.50494847280427
C            1.63727897040074        0.23592784259817        0.11529095224547
N            2.58946139843237        0.77559163749719       -0.21560743423837
C           -0.73560860731386        0.58027811934780        0.44635528220921
C           -2.13720187790567        0.11206576863741        0.37791394695290
N           -1.45069587219513        0.58321447911168       -0.80707905396963
H           -0.28855187671163       -1.22338260018321       -1.11258611434513
H            0.53089044741350       -0.81561766402788        1.53210113740298
H           -0.51227818896916        1.51598877589573        0.95188832113743
H           -2.91072298863787        0.72035287313891        0.83059793195228
H           -2.32916978510745       -0.95282918207039        0.39238933182786
H           -1.73590798296616        1.49533828553602       -1.14480480381486
