      -----------------------------------------------------------      
     |                   =====================                   |     
     |                           x T B                           |     
     |                   =====================                   |     
     |                         S. Grimme                         |     
     |          Mulliken Center for Theoretical Chemistry        |     
     |                    University of Bonn                     |     
      -----------------------------------------------------------      

   * xtb version 6.7.1 (edcfbbe) compiled by 'albert@albert-system' on 2024-07-22

   xtb is free software: you can redistribute it and/or modify it under
   the terms of the GNU Lesser General Public License as published by
   the Free Software Foundation, either version 3 of the License, or
   (at your option) any later version.
   
   xtb is distributed in the hope that it will be useful,
   but WITHOUT ANY WARRANTY; without even the implied warranty of
   MERCHANTABILITY or FITNESS FOR A PARTICULAR PURPOSE.  See the
   GNU Lesser General Public License for more details.
   
   Cite this work as:
   * C. Bannwarth, E. Caldeweyher, S. Ehlert, A. Hansen, P. Pracht,
     J. Seibert, S. Spicher, S. Grimme, WIREs Comput. Mol. Sci., 2020, 11,
     e01493. DOI: 10.1002/wcms.1493
   
   for GFN2-xTB:
   * C. Bannwarth, S. Ehlert and S. Grimme., J. Chem. Theory Comput., 2019,
     15, 1652-1671. DOI: 10.1021/acs.jctc.8b01176
   for GFN1-xTB:
   * S. Grimme, C. Bannwarth, P. Shushkov, J. Chem. Theory Comput., 2017,
     13, 1989-2009. DOI: 10.1021/acs.jctc.7b00118
   for GFN0-xTB:
   * P. Pracht, E. Caldeweyher, S. Ehlert, S. Grimme, ChemRxiv, 2019, preprint.
     DOI: 10.26434/chemrxiv.8326202.v1
   for GFN-FF:
   * S. Spicher and S. Grimme, Angew. Chem. Int. Ed., 2020, 59, 15665-15673.
     DOI: 10.1002/anie.202004239
   
   for ALPB and GBSA implicit solvation:
   * S. Ehlert, M. Stahn, S. Spicher, S. Grimme, J. Chem. Theory Comput.,
     2021, 17, 4250-4261. DOI: 10.1021/acs.jctc.1c00471
   
   for ddCOSMO and CPCM-X implicit solvation:
   * M. Stahn, S. Ehlert, S. Grimme, J. Phys. Chem. A,
     2023, XX, XXXX-XXXX. DOI: 10.1021/acs.jpca.3c04382
   
   for DFT-D4:
   * E. Caldeweyher, C. Bannwarth and S. Grimme, J. Chem. Phys., 2017,
     147, 034112. DOI: 10.1063/1.4993215
   * E. Caldeweyher, S. Ehlert, A. Hansen, H. Neugebauer, S. Spicher,
     C. Bannwarth and S. Grimme, J. Chem. Phys., 2019, 150, 154122.
     DOI: 10.1063/1.5090222
   * E. Caldeweyher, J.-M. Mewes, S. Ehlert and S. Grimme, Phys. Chem. Chem. Phys.
     2020, 22, 8499-8512. DOI: 10.1039/D0CP00502A
   
   for sTDA-xTB:
   * S. Grimme and C. Bannwarth, J. Chem. Phys., 2016, 145, 054103.
     DOI: 10.1063/1.4959605
   
   in the mass-spec context:
   * V. Asgeirsson, C. Bauer and S. Grimme, Chem. Sci., 2017, 8, 4879.
     DOI: 10.1039/c7sc00601b
   * J. Koopman and S. Grimme, ACS Omega 2019, 4, 12, 15120-15133.
     DOI: 10.1021/acsomega.9b02011
   
   for metadynamics refer to:
   * S. Grimme, J. Chem. Theory Comput., 2019, 155, 2847-2862
     DOI: 10.1021/acs.jctc.9b00143
   
   for SPH calculations refer to:
   * S. Spicher and S. Grimme, J. Chem. Theory Comput., 2021, 17, 1701-1714
     DOI: 10.1021/acs.jctc.0c01306
   
   for ONIOM refer to:
   * C. Plett, A. Katbashev, S. Ehlert, S. Grimme, M. Bursch,
     Phys. Chem. Chem. Phys., 2023, 25, 17860-17868. DOI: 10.1039/D3CP02178E
   
   for DIPRO refer to:
   * J. Kohn, N. Gildemeister, S. Grimme, D. Fazzi, A. Hansen,
     J. Chem. Phys., 2023, just accepted.
   
   for PTB refer to:
   * S. Grimme, M. Mueller, A. Hansen, J. Chem. Phys., 2023, 158, 124111.
     DOI: 10.1063/5.0137838
   
   with help from (in alphabetical order)
   P. Atkinson, C. Bannwarth, F. Bohle, G. Brandenburg, E. Caldeweyher
   M. Checinski, S. Dohm, S. Ehlert, S. Ehrlich, I. Gerasimov, C. Hölzer
   A. Katbashev, J. Kohn, J. Koopman, C. Lavigne, S. Lehtola, F. März, M. Müller,
   F. Musil, H. Neugebauer, J. Pisarek, C. Plett, P. Pracht, F. Pultar,
   J. Seibert, P. Shushkov, S. Spicher, M. Stahn, M. Steiner, T. Strunk,
   J. Stückrath, T. Rose, and J. Unsleber
   
 * started run on 2024/08/07 at 21:22:39.431     
   ID    Z sym.   atoms
    1    6 C      1-3, 5, 6
    2    7 N      4
    3    8 O      7
    4    1 H      8-16

           -------------------------------------------------
          |                Calculation Setup                |
           -------------------------------------------------

          program call               : xtb crest_best.xyz --gfn 2 --alpb toluene --opt vtight -c 0 --iterations 40
          coordinate file            : crest_best.xyz
          omp threads                :                     8


           -------------------------------------------------
          |                 G F N 2 - x T B                 |
           -------------------------------------------------

        Reference                      10.1021/acs.jctc.8b01176
      * Hamiltonian:
        H0-scaling (s, p, d)           1.850000    2.230000    2.230000
        zeta-weighting                 0.500000
      * Dispersion:
        s8                             2.700000
        a1                             0.520000
        a2                             5.000000
        s9                             5.000000
      * Repulsion:
        kExp                           1.500000    1.000000
        rExp                           1.000000
      * Coulomb:
        alpha                          2.000000
        third order                    shell-resolved
        anisotropic                    true
        a3                             3.000000
        a5                             4.000000
        cn-shift                       1.200000
        cn-exp                         4.000000
        max-rad                        5.000000

      * Solvation model:               ALPB
        Solvent                        toluene
        Parameter file                 internal GFN2-xTB/ALPB
        Dielectric constant                7.0000E+00
        Reference state                gsolv [1 M gas/solution]
        Free energy shift                  2.2081E-03 Eh       1.3856E+00 kcal/mol
        Temperature                        2.9815E+02 K
        Density                            8.6700E-01 kg/L
        Solvent mass                       7.8110E+01 g/mol
        Interaction kernel             P16
        Born radius scaling (c1)           1.7172E+00
        Born radii integrator          GBOBC
        Born offset                        0.0000E+00 a0       0.0000E+00 AA
        H-bond correction              false
        Ion screening                  false
        Surface tension                    1.0000E-05 Eh       1.5569E+01 dyn/cm
        Grid points                               230 per atom

          ...................................................
          :                      SETUP                      :
          :.................................................:
          :  # basis functions                  37          :
          :  # atomic orbitals                  37          :
          :  # shells                           23          :
          :  # electrons                        40          :
          :  max. iterations                    40          :
          :  Hamiltonian                  GFN2-xTB          :
          :  restarted?                      false          :
          :  GBSA solvation                   true          :
          :  PC potential                    false          :
          :  electronic temp.          300.0000000     K    :
          :  accuracy                    1.0000000          :
          :  -> integral cutoff          0.2500000E+02      :
          :  -> integral neglect         0.1000000E-07      :
          :  -> SCF convergence          0.1000000E-05 Eh   :
          :  -> wf. convergence          0.1000000E-03 e    :
          :  Broyden damping             0.4000000          :
          :  net charge                          0          :
          :  unpaired electrons                  0          :
          ...................................................

 iter      E             dE          RMSdq      gap      omega  full diag
   1    -22.4483976 -0.224484E+02  0.381E+00    3.77       0.0  T
   2    -22.4902447 -0.418471E-01  0.194E+00    2.88       1.0  T
   3    -22.4935450 -0.330028E-02  0.124E+00    3.04       1.0  T
   4    -22.4965943 -0.304928E-02  0.160E-01    2.62       1.0  T
   5    -22.4967191 -0.124795E-03  0.720E-02    2.69       1.0  T
   6    -22.4967395 -0.204531E-04  0.267E-02    2.69       1.0  T
   7    -22.4967408 -0.121712E-05  0.110E-02    2.69       2.3  T
   8    -22.4967410 -0.292089E-06  0.253E-03    2.69       9.9  T
   9    -22.4967411 -0.201368E-07  0.132E-03    2.69      18.9  T
  10    -22.4967411 -0.261523E-08  0.297E-04    2.69      84.2  T
  11    -22.4967411 -0.773774E-09  0.101E-04    2.69     248.0  T

   *** convergence criteria satisfied after 11 iterations ***

         #    Occupation            Energy/Eh            Energy/eV
      -------------------------------------------------------------
         1        2.0000           -0.7378903             -20.0790
       ...           ...                  ...                  ...
        14        2.0000           -0.4768964             -12.9770
        15        2.0000           -0.4728803             -12.8677
        16        2.0000           -0.4596876             -12.5087
        17        2.0000           -0.4397898             -11.9673
        18        2.0000           -0.4380290             -11.9194
        19        2.0000           -0.4134729             -11.2512
        20        2.0000           -0.3789468             -10.3117 (HOMO)
        21                         -0.2800378              -7.6202 (LUMO)
        22                         -0.0948983              -2.5823
        23                          0.0018708               0.0509
        24                          0.0500025               1.3606
        25                          0.0867169               2.3597
       ...                                ...                  ...
        37                          0.6124086              16.6645
      -------------------------------------------------------------
                  HL-Gap            0.0989090 Eh            2.6915 eV
             Fermi-level           -0.3294923 Eh           -8.9659 eV

 SCC (total)                   0 d,  0 h,  0 min,  0.011 sec
 SCC setup                      ...        0 min,  0.000 sec (  3.701%)
 Dispersion                     ...        0 min,  0.000 sec (  1.196%)
 classical contributions        ...        0 min,  0.000 sec (  0.203%)
 integral evaluation            ...        0 min,  0.001 sec (  5.960%)
 iterations                     ...        0 min,  0.006 sec ( 56.207%)
 molecular gradient             ...        0 min,  0.003 sec ( 27.399%)
 printout                       ...        0 min,  0.001 sec (  4.969%)

         :::::::::::::::::::::::::::::::::::::::::::::::::::::
         ::                     SUMMARY                     ::
         :::::::::::::::::::::::::::::::::::::::::::::::::::::
         :: total energy             -22.228133812932 Eh    ::
         :: total w/o Gsasa/hb       -22.220085894352 Eh    ::
         :: gradient norm              0.056000530785 Eh/a0 ::
         :: HOMO-LUMO gap              2.691451124878 eV    ::
         ::.................................................::
         :: SCC energy               -22.496715458080 Eh    ::
         :: -> isotropic ES            0.030048291967 Eh    ::
         :: -> anisotropic ES          0.001518518849 Eh    ::
         :: -> anisotropic XC          0.014182387373 Eh    ::
         :: -> dispersion             -0.010484935548 Eh    ::
         :: -> Gsolv                  -0.009489537069 Eh    ::
         ::    -> Gelec               -0.001441618490 Eh    ::
         ::    -> Gsasa               -0.010256061718 Eh    ::
         ::    -> Ghb                  0.000000000000 Eh    ::
         ::    -> Gshift               0.002208143139 Eh    ::
         :: repulsion energy           0.268581645149 Eh    ::
         :: add. restraining           0.000000000000 Eh    ::
         :: total charge              -0.000000000000 e     ::
         :::::::::::::::::::::::::::::::::::::::::::::::::::::

      ----------------------------------------------------------- 
     |                   =====================                   |
     |                        A N C O P T                        |
     |                   =====================                   |
     |               Approximate Normal Coordinate               |
     |                Rational Function Optimizer                |
      ----------------------------------------------------------- 
      ----------------------------------------------------------- 
     |                   =====================                   |
     |                        A N C O P T                        |
     |                   =====================                   |
     |               Approximate Normal Coordinate               |
     |                Rational Function Optimizer                |
      ----------------------------------------------------------- 

          ...................................................
          :                      SETUP                      :
          :.................................................:
          :   optimization level         verytight          :
          :   max. optcycles                   320          :
          :   ANC micro-cycles                  20          :
          :   degrees of freedom                42          :
          :.................................................:
          :   RF solver                   davidson          :
          :   write xtbopt.log                true          :
          :   linear?                        false          :
          :   energy convergence         0.1000000E-06 Eh   :
          :   grad. convergence          0.2000000E-03 Eh/α :
          :   maxmium RF displ.          1.0000000          :
          :   Hlow (freq-cutoff)         0.1000000E-01      :
          :   Hmax (freq-cutoff)         5.0000000          :
          :   S6 in model hess.         20.0000000          :
          ...................................................

generating ANC from exact Hessian ...
Using Lindh-Hessian (1995)
 Shifting diagonal of input Hessian by   7.587776946230806E-003
 Lowest  eigenvalues of input Hessian
    0.000000    0.000000    0.000000    0.000000    0.000000    0.000000
    0.010000    0.011562    0.013770    0.017313    0.021585    0.025081
    0.035958    0.039915    0.046172    0.059035    0.062476    0.066355
 Highest eigenvalues
    1.204240    1.244837    1.346275    1.455137    1.787314    2.238726
 

........................................................................
.............................. CYCLE    1 ..............................
........................................................................

 iter      E             dE          RMSdq      gap      omega  full diag
   1    -22.4967411 -0.224967E+02  0.412E-05    2.69       0.0  T
   2    -22.4967411 -0.129852E-10  0.195E-05    2.69    1281.1  T
   3    -22.4967411 -0.371614E-11  0.886E-06    2.69    2820.5  T
     SCC iter.                  ...        0 min,  0.002 sec
     gradient                   ...        0 min,  0.003 sec
 * total energy  :   -22.2281338 Eh     change       -0.1085709E-10 Eh
   gradient norm :     0.0560000 Eh/α   predicted     0.0000000E+00 (-100.00%)
   displ. norm   :     0.4067816 α      lambda       -0.9249518E-02
   maximum displ.:     0.3038393 α      in ANC's #2, #5, #8, ...

........................................................................
.............................. CYCLE    2 ..............................
........................................................................

 iter      E             dE          RMSdq      gap      omega  full diag
   1    -22.5016031 -0.225016E+02  0.321E-01    2.40       0.0  T
   2    -22.5016580 -0.549063E-04  0.195E-01    2.48       1.0  T
   3    -22.5016466  0.114355E-04  0.436E-02    2.48       1.0  T
   4    -22.5016645 -0.179462E-04  0.933E-03    2.50       2.7  T
   5    -22.5016651 -0.576486E-06  0.423E-03    2.49       5.9  T
   6    -22.5016651 -0.349679E-07  0.167E-03    2.49      15.0  T
   7    -22.5016651 -0.386677E-08  0.683E-04    2.49      36.6  T
   8    -22.5016651 -0.784375E-09  0.234E-04    2.49     106.8  T
     SCC iter.                  ...        0 min,  0.007 sec
     gradient                   ...        0 min,  0.003 sec
 * total energy  :   -22.2341245 Eh     change       -0.5990728E-02 Eh
   gradient norm :     0.0251885 Eh/α   predicted    -0.5390017E-02 ( -10.03%)
   displ. norm   :     0.2953259 α      lambda       -0.2635259E-02
   maximum displ.:     0.1825040 α      in ANC's #2, #3, #1, ...

........................................................................
.............................. CYCLE    3 ..............................
........................................................................

 iter      E             dE          RMSdq      gap      omega  full diag
   1    -22.5048650 -0.225049E+02  0.218E-01    2.37       0.0  T
   2    -22.5048735 -0.845436E-05  0.131E-01    2.39       1.0  T
   3    -22.5048736 -0.132541E-06  0.109E-02    2.39       2.3  T
   4    -22.5048747 -0.104560E-05  0.434E-03    2.40       5.8  T
   5    -22.5048747 -0.488446E-07  0.210E-03    2.39      11.9  T
   6    -22.5048747 -0.744471E-08  0.573E-04    2.39      43.6  T
   7    -22.5048747 -0.185082E-08  0.226E-04    2.39     110.7  T
     SCC iter.                  ...        0 min,  0.007 sec
     gradient                   ...        0 min,  0.003 sec
 * total energy  :   -22.2356231 Eh     change       -0.1498595E-02 Eh
   gradient norm :     0.0174684 Eh/α   predicted    -0.1432549E-02 (  -4.41%)
   displ. norm   :     0.2050070 α      lambda       -0.8470876E-03
   maximum displ.:     0.1339089 α      in ANC's #2, #3, #1, ...

........................................................................
.............................. CYCLE    4 ..............................
........................................................................

 iter      E             dE          RMSdq      gap      omega  full diag
   1    -22.5073292 -0.225073E+02  0.131E-01    2.41       0.0  T
   2    -22.5073348 -0.559730E-05  0.774E-02    2.43       1.0  T
   3    -22.5073332  0.158873E-05  0.170E-02    2.42       1.5  T
   4    -22.5073359 -0.266627E-05  0.441E-03    2.43       5.7  T
   5    -22.5073360 -0.653520E-07  0.169E-03    2.42      14.8  T
   6    -22.5073360 -0.568963E-08  0.700E-04    2.43      35.7  T
   7    -22.5073360 -0.105986E-08  0.258E-04    2.43      96.8  T
     SCC iter.                  ...        0 min,  0.006 sec
     gradient                   ...        0 min,  0.003 sec
 * total energy  :   -22.2359876 Eh     change       -0.3644196E-03 Eh
   gradient norm :     0.0080454 Eh/α   predicted    -0.4413444E-03 (  21.11%)
   displ. norm   :     0.0937623 α      lambda       -0.2671882E-03
   maximum displ.:     0.0634839 α      in ANC's #2, #5, #3, ...

........................................................................
.............................. CYCLE    5 ..............................
........................................................................

 iter      E             dE          RMSdq      gap      omega  full diag
   1    -22.5084353 -0.225084E+02  0.833E-02    2.43       0.0  T
   2    -22.5084375 -0.215771E-05  0.495E-02    2.42       1.0  T
   3    -22.5084369  0.597002E-06  0.997E-03    2.42       2.5  T
   4    -22.5084378 -0.923327E-06  0.233E-03    2.42      10.7  T
   5    -22.5084378 -0.205812E-07  0.118E-03    2.42      21.2  T
   6    -22.5084378 -0.762729E-09  0.287E-04    2.42      87.2  T
   7    -22.5084378 -0.209756E-09  0.115E-04    2.42     216.7  T
     SCC iter.                  ...        0 min,  0.005 sec
     gradient                   ...        0 min,  0.002 sec
 * total energy  :   -22.2361404 Eh     change       -0.1528302E-03 Eh
   gradient norm :     0.0035689 Eh/α   predicted    -0.1347684E-03 ( -11.82%)
   displ. norm   :     0.0594402 α      lambda       -0.5658950E-04
   maximum displ.:     0.0378557 α      in ANC's #4, #5, #2, ...

........................................................................
.............................. CYCLE    6 ..............................
........................................................................

 iter      E             dE          RMSdq      gap      omega  full diag
   1    -22.5087204 -0.225087E+02  0.413E-02    2.41       0.0  T
   2    -22.5087206 -0.196675E-06  0.243E-02    2.42       1.0  T
   3    -22.5087206  0.223580E-07  0.274E-03    2.41       9.1  T
   4    -22.5087206 -0.759254E-07  0.825E-04    2.42      30.3  T
   5    -22.5087206 -0.663924E-09  0.356E-04    2.42      70.1  T
     SCC iter.                  ...        0 min,  0.004 sec
     gradient                   ...        0 min,  0.005 sec
 * total energy  :   -22.2361840 Eh     change       -0.4357580E-04 Eh
   gradient norm :     0.0027045 Eh/α   predicted    -0.2839334E-04 ( -34.84%)
   displ. norm   :     0.1177631 α      lambda       -0.7536074E-04
   maximum displ.:     0.0763098 α      in ANC's #4, #5, #2, ...

........................................................................
.............................. CYCLE    7 ..............................
........................................................................

 iter      E             dE          RMSdq      gap      omega  full diag
   1    -22.5085902 -0.225086E+02  0.102E-01    2.41       0.0  T
   2    -22.5085912 -0.102246E-05  0.598E-02    2.41       1.0  T
   3    -22.5085911  0.687665E-07  0.569E-03    2.41       4.4  T
   4    -22.5085914 -0.306141E-06  0.185E-03    2.42      13.5  T
   5    -22.5085914 -0.753034E-08  0.979E-04    2.41      25.5  T
   6    -22.5085914 -0.210850E-08  0.402E-04    2.41      62.2  T
     SCC iter.                  ...        0 min,  0.004 sec
     gradient                   ...        0 min,  0.002 sec
 * total energy  :   -22.2362381 Eh     change       -0.5413202E-04 Eh
   gradient norm :     0.0024516 Eh/α   predicted    -0.3820091E-04 ( -29.43%)
   displ. norm   :     0.1575228 α      lambda       -0.7264927E-04
   maximum displ.:     0.0925312 α      in ANC's #4, #5, #2, ...

........................................................................
.............................. CYCLE    8 ..............................
........................................................................

 iter      E             dE          RMSdq      gap      omega  full diag
   1    -22.5080060 -0.225080E+02  0.167E-01    2.40       0.0  T
   2    -22.5080083 -0.226965E-05  0.980E-02    2.41       1.0  T
   3    -22.5080083 -0.242352E-07  0.771E-03    2.41       3.2  T
   4    -22.5080088 -0.491352E-06  0.285E-03    2.41       8.8  T
   5    -22.5080088 -0.232323E-07  0.152E-03    2.41      16.4  T
   6    -22.5080088 -0.501369E-08  0.630E-04    2.41      39.7  T
   7    -22.5080088 -0.990280E-09  0.169E-04    2.41     147.9  T
     SCC iter.                  ...        0 min,  0.005 sec
     gradient                   ...        0 min,  0.003 sec
 * total energy  :   -22.2362931 Eh     change       -0.5503690E-04 Eh
   gradient norm :     0.0043111 Eh/α   predicted    -0.3722384E-04 ( -32.37%)
   displ. norm   :     0.2299121 α      lambda       -0.1034563E-03
   maximum displ.:     0.1157272 α      in ANC's #5, #4, #3, ...

........................................................................
.............................. CYCLE    9 ..............................
........................................................................

 iter      E             dE          RMSdq      gap      omega  full diag
   1    -22.5065106 -0.225065E+02  0.272E-01    2.39       0.0  T
   2    -22.5065169 -0.629514E-05  0.160E-01    2.41       1.0  T
   3    -22.5065171 -0.206883E-06  0.119E-02    2.41       2.1  T
   4    -22.5065182 -0.107390E-05  0.449E-03    2.41       5.6  T
   5    -22.5065183 -0.609157E-07  0.243E-03    2.41      10.3  T
   6    -22.5065183 -0.146121E-07  0.102E-03    2.41      24.4  T
   7    -22.5065183 -0.258022E-08  0.269E-04    2.41      93.0  T
   8    -22.5065183 -0.186454E-09  0.978E-05    2.41     255.7  T
     SCC iter.                  ...        0 min,  0.006 sec
     gradient                   ...        0 min,  0.004 sec
 * total energy  :   -22.2363398 Eh     change       -0.4667037E-04 Eh
   gradient norm :     0.0103547 Eh/α   predicted    -0.5446191E-04 (  16.69%)
   displ. norm   :     0.0492198 α      lambda       -0.1045721E-03
   maximum displ.:     0.0307684 α      in ANC's #1, #3, #4, ...

........................................................................
.............................. CYCLE   10 ..............................
........................................................................

 iter      E             dE          RMSdq      gap      omega  full diag
   1    -22.5080589 -0.225081E+02  0.277E-02    2.43       0.0  T
   2    -22.5080599 -0.100574E-05  0.167E-02    2.42       1.5  T
   3    -22.5080598  0.597639E-07  0.568E-03    2.42       4.4  T
   4    -22.5080600 -0.154164E-06  0.107E-03    2.42      23.3  T
   5    -22.5080600 -0.897674E-08  0.488E-04    2.42      51.2  T
   6    -22.5080600 -0.719265E-09  0.197E-04    2.42     127.0  T
     SCC iter.                  ...        0 min,  0.004 sec
     gradient                   ...        0 min,  0.002 sec
 * total energy  :   -22.2364197 Eh     change       -0.7987461E-04 Eh
   gradient norm :     0.0055396 Eh/α   predicted    -0.5241417E-04 ( -34.38%)
   displ. norm   :     0.2135167 α      lambda       -0.1811784E-03
   maximum displ.:     0.1300992 α      in ANC's #3, #6, #5, ...

........................................................................
.............................. CYCLE   11 ..............................
........................................................................

 iter      E             dE          RMSdq      gap      omega  full diag
   1    -22.5084602 -0.225085E+02  0.257E-01    2.45       0.0  T
   2    -22.5084640 -0.381445E-05  0.151E-01    2.44       1.0  T
   3    -22.5084642 -0.192391E-06  0.956E-03    2.44       2.6  T
   4    -22.5084650 -0.792756E-06  0.392E-03    2.44       6.4  T
   5    -22.5084650 -0.290394E-07  0.197E-03    2.44      12.7  T
   6    -22.5084650 -0.701399E-08  0.579E-04    2.44      43.2  T
   7    -22.5084650 -0.862492E-09  0.295E-04    2.44      84.8  T
     SCC iter.                  ...        0 min,  0.006 sec
     gradient                   ...        0 min,  0.004 sec
 * total energy  :   -22.2365424 Eh     change       -0.1227714E-03 Eh
   gradient norm :     0.0050695 Eh/α   predicted    -0.9471985E-04 ( -22.85%)
   displ. norm   :     0.1595805 α      lambda       -0.1188096E-03
   maximum displ.:     0.0851007 α      in ANC's #3, #6, #1, ...

........................................................................
.............................. CYCLE   12 ..............................
........................................................................

 iter      E             dE          RMSdq      gap      omega  full diag
   1    -22.5085800 -0.225086E+02  0.183E-01    2.45       0.0  T
   2    -22.5085818 -0.181861E-05  0.108E-01    2.45       1.0  T
   3    -22.5085821 -0.238600E-06  0.592E-03    2.45       4.2  T
   4    -22.5085823 -0.253383E-06  0.272E-03    2.45       9.2  T
   5    -22.5085824 -0.122742E-07  0.127E-03    2.45      19.7  T
   6    -22.5085824 -0.281976E-08  0.379E-04    2.45      66.0  T
   7    -22.5085824 -0.280618E-09  0.186E-04    2.45     134.6  T
     SCC iter.                  ...        0 min,  0.004 sec
     gradient                   ...        0 min,  0.002 sec
 * total energy  :   -22.2366364 Eh     change       -0.9395668E-04 Eh
   gradient norm :     0.0049759 Eh/α   predicted    -0.6091596E-04 ( -35.17%)
   displ. norm   :     0.2728667 α      lambda       -0.1909476E-03
   maximum displ.:     0.1288126 α      in ANC's #6, #1, #5, ...

........................................................................
.............................. CYCLE   13 ..............................
........................................................................

 iter      E             dE          RMSdq      gap      omega  full diag
   1    -22.5077070 -0.225077E+02  0.321E-01    2.44       0.0  T
   2    -22.5077126 -0.558887E-05  0.189E-01    2.44       1.0  T
   3    -22.5077137 -0.107814E-05  0.947E-03    2.44       2.6  T
   4    -22.5077141 -0.434238E-06  0.452E-03    2.44       5.5  T
   5    -22.5077141 -0.205730E-07  0.190E-03    2.44      13.2  T
   6    -22.5077141 -0.895650E-08  0.729E-04    2.44      34.3  T
   7    -22.5077141 -0.154659E-08  0.273E-04    2.44      91.7  T
     SCC iter.                  ...        0 min,  0.007 sec
     gradient                   ...        0 min,  0.004 sec
 * total energy  :   -22.2367716 Eh     change       -0.1352331E-03 Eh
   gradient norm :     0.0074485 Eh/α   predicted    -0.1025817E-03 ( -24.14%)
   displ. norm   :     0.3694299 α      lambda       -0.4198895E-03
   maximum displ.:     0.2542357 α      in ANC's #1, #6, #5, ...

........................................................................
.............................. CYCLE   14 ..............................
........................................................................

 iter      E             dE          RMSdq      gap      omega  full diag
   1    -22.5096574 -0.225097E+02  0.311E-01    2.51       0.0  T
   2    -22.5096691 -0.116124E-04  0.183E-01    2.48       1.0  T
   3    -22.5096702 -0.115060E-05  0.107E-02    2.47       2.3  T
   4    -22.5096706 -0.439887E-06  0.491E-03    2.47       5.1  T
   5    -22.5096708 -0.100466E-06  0.252E-03    2.47       9.9  T
   6    -22.5096708 -0.951765E-08  0.756E-04    2.47      33.0  T
   7    -22.5096708 -0.168863E-08  0.295E-04    2.47      84.8  T
     SCC iter.                  ...        0 min,  0.007 sec
     gradient                   ...        0 min,  0.005 sec
 * total energy  :   -22.2368668 Eh     change       -0.9520053E-04 Eh
   gradient norm :     0.0145511 Eh/α   predicted    -0.2385957E-03 ( 150.62%)
   displ. norm   :     0.3998120 α      lambda       -0.4777637E-03
   maximum displ.:     0.2145647 α      in ANC's #5, #1, #6, ...

........................................................................
.............................. CYCLE   15 ..............................
........................................................................

 iter      E             dE          RMSdq      gap      omega  full diag
   1    -22.5031681 -0.225032E+02  0.458E-01    2.39       0.0  T
   2    -22.5031894 -0.212716E-04  0.270E-01    2.41       1.0  T
   3    -22.5031886  0.849996E-06  0.223E-02    2.40       1.1  T
   4    -22.5031933 -0.472330E-05  0.708E-03    2.41       3.5  T
   5    -22.5031934 -0.859846E-07  0.402E-03    2.41       6.2  T
   6    -22.5031934 -0.433066E-07  0.133E-03    2.41      18.8  T
   7    -22.5031934 -0.478321E-08  0.445E-04    2.41      56.1  T
   8    -22.5031934 -0.469559E-09  0.185E-04    2.41     135.1  T
     SCC iter.                  ...        0 min,  0.008 sec
     gradient                   ...        0 min,  0.007 sec
 * total energy  :   -22.2369131 Eh     change       -0.4625901E-04 Eh
   gradient norm :     0.0175370 Eh/α   predicted    -0.2770697E-03 ( 498.95%)
   displ. norm   :     0.2864567 α      lambda       -0.7287055E-03
   maximum displ.:     0.1565133 α      in ANC's #1, #6, #3, ...

........................................................................
.............................. CYCLE   16 ..............................
........................................................................

 iter      E             dE          RMSdq      gap      omega  full diag
   1    -22.5100021 -0.225100E+02  0.286E-01    2.42       0.0  T
   2    -22.5100100 -0.793824E-05  0.169E-01    2.43       1.0  T
   3    -22.5100096  0.405984E-06  0.140E-02    2.44       1.8  T
   4    -22.5100115 -0.189887E-05  0.499E-03    2.43       5.0  T
   5    -22.5100116 -0.739619E-07  0.248E-03    2.43      10.1  T
   6    -22.5100116 -0.106188E-07  0.805E-04    2.43      31.0  T
   7    -22.5100116 -0.128483E-08  0.344E-04    2.43      72.6  T
     SCC iter.                  ...        0 min,  0.004 sec
     gradient                   ...        0 min,  0.001 sec
 * total energy  :   -22.2371808 Eh     change       -0.2676688E-03 Eh
   gradient norm :     0.0064231 Eh/α   predicted    -0.3942550E-03 (  47.29%)
   displ. norm   :     0.1682529 α      lambda       -0.2009859E-03
   maximum displ.:     0.1216736 α      in ANC's #1, #5, #6, ...

........................................................................
.............................. CYCLE   17 ..............................
........................................................................

 iter      E             dE          RMSdq      gap      omega  full diag
   1    -22.5102122 -0.225102E+02  0.132E-01    2.49       0.0  T
   2    -22.5102181 -0.594538E-05  0.772E-02    2.46       1.0  T
   3    -22.5102179  0.244055E-06  0.116E-02    2.46       2.1  T
   4    -22.5102187 -0.802151E-06  0.332E-03    2.46       7.5  T
   5    -22.5102188 -0.873624E-07  0.132E-03    2.46      19.0  T
   6    -22.5102188 -0.387202E-08  0.517E-04    2.46      48.3  T
   7    -22.5102188 -0.465239E-09  0.191E-04    2.46     131.2  T
     SCC iter.                  ...        0 min,  0.006 sec
     gradient                   ...        0 min,  0.001 sec
 * total energy  :   -22.2373060 Eh     change       -0.1252441E-03 Eh
   gradient norm :     0.0074960 Eh/α   predicted    -0.1033375E-03 ( -17.49%)
   displ. norm   :     0.3613111 α      lambda       -0.2573461E-03
   maximum displ.:     0.2315554 α      in ANC's #1, #5, #6, ...

........................................................................
.............................. CYCLE   18 ..............................
........................................................................

 iter      E             dE          RMSdq      gap      omega  full diag
   1    -22.5081221 -0.225081E+02  0.321E-01    2.45       0.0  T
   2    -22.5081295 -0.745536E-05  0.189E-01    2.44       1.0  T
   3    -22.5081302 -0.679255E-06  0.117E-02    2.43       2.1  T
   4    -22.5081312 -0.973047E-06  0.470E-03    2.44       5.3  T
   5    -22.5081312 -0.174225E-07  0.211E-03    2.44      11.9  T
   6    -22.5081312 -0.108620E-07  0.596E-04    2.44      42.0  T
   7    -22.5081312 -0.857106E-09  0.284E-04    2.44      88.1  T
     SCC iter.                  ...        0 min,  0.008 sec
     gradient                   ...        0 min,  0.002 sec
 * total energy  :   -22.2374839 Eh     change       -0.1778851E-03 Eh
   gradient norm :     0.0094228 Eh/α   predicted    -0.1454637E-03 ( -18.23%)
   displ. norm   :     0.2187678 α      lambda       -0.1850333E-03
   maximum displ.:     0.1268888 α      in ANC's #1, #5, #6, ...

........................................................................
.............................. CYCLE   19 ..............................
........................................................................

 iter      E             dE          RMSdq      gap      omega  full diag
   1    -22.5074742 -0.225075E+02  0.199E-01    2.41       0.0  T
   2    -22.5074775 -0.326227E-05  0.118E-01    2.42       1.0  T
   3    -22.5074776 -0.830309E-07  0.845E-03    2.41       3.0  T
   4    -22.5074782 -0.633004E-06  0.310E-03    2.41       8.1  T
   5    -22.5074782 -0.133760E-07  0.122E-03    2.41      20.5  T
   6    -22.5074782 -0.321956E-08  0.492E-04    2.41      50.8  T
   7    -22.5074782 -0.437566E-09  0.139E-04    2.41     179.5  T
     SCC iter.                  ...        0 min,  0.009 sec
     gradient                   ...        0 min,  0.001 sec
 * total energy  :   -22.2376094 Eh     change       -0.1255237E-03 Eh
   gradient norm :     0.0081173 Eh/α   predicted    -0.9694652E-04 ( -22.77%)
   displ. norm   :     0.1398066 α      lambda       -0.2652526E-03
   maximum displ.:     0.0697933 α      in ANC's #1, #5, #29, ...

........................................................................
.............................. CYCLE   20 ..............................
........................................................................

 iter      E             dE          RMSdq      gap      omega  full diag
   1    -22.5111925 -0.225112E+02  0.996E-02    2.41       0.0  T
   2    -22.5111950 -0.254278E-05  0.595E-02    2.41       1.0  T
   3    -22.5111946  0.388796E-06  0.893E-03    2.41       2.8  T
   4    -22.5111955 -0.836202E-06  0.348E-03    2.41       7.2  T
   5    -22.5111955 -0.590172E-07  0.781E-04    2.41      32.0  T
   6    -22.5111955 -0.886402E-09  0.392E-04    2.41      63.7  T
     SCC iter.                  ...        0 min,  0.010 sec
     gradient                   ...        0 min,  0.006 sec
 * total energy  :   -22.2377278 Eh     change       -0.1183732E-03 Eh
   gradient norm :     0.0061755 Eh/α   predicted    -0.1352199E-03 (  14.23%)
   displ. norm   :     0.3143476 α      lambda       -0.1736306E-03
   maximum displ.:     0.2081701 α      in ANC's #1, #5, #6, ...
 * RMSD in coord.:     0.6547470 α      energy gain  -0.9593978E-02 Eh

generating ANC from exact Hessian ...
Using Lindh-Hessian (1995)
 Shifting diagonal of input Hessian by   7.270074415772662E-003
 Lowest  eigenvalues of input Hessian
    0.000000    0.000000    0.000000    0.000000    0.000000    0.000000
    0.010000    0.012278    0.014502    0.017965    0.019776    0.026294
    0.039340    0.044643    0.050133    0.052370    0.063903    0.067916
 Highest eigenvalues
    1.235777    1.286286    1.410059    1.490658    1.959639    2.184123
 

........................................................................
.............................. CYCLE   21 ..............................
........................................................................

 iter      E             dE          RMSdq      gap      omega  full diag
   1    -22.5096084 -0.225096E+02  0.264E-01    2.42       0.0  T
   2    -22.5096126 -0.420509E-05  0.155E-01    2.41       1.0  T
   3    -22.5096132 -0.567917E-06  0.920E-03    2.40       2.7  T
   4    -22.5096136 -0.454871E-06  0.394E-03    2.40       6.3  T
   5    -22.5096137 -0.362860E-07  0.189E-03    2.40      13.2  T
   6    -22.5096137 -0.723941E-08  0.617E-04    2.40      40.5  T
   7    -22.5096137 -0.108163E-08  0.220E-04    2.40     113.6  T
     SCC iter.                  ...        0 min,  0.011 sec
     gradient                   ...        0 min,  0.004 sec
 * total energy  :   -22.2378206 Eh     change       -0.9276350E-04 Eh
   gradient norm :     0.0060463 Eh/α   predicted     0.0000000E+00 (-100.00%)
   displ. norm   :     0.0211672 α      lambda       -0.6633214E-04
   maximum displ.:     0.0084050 α      in ANC's #14, #3, #28, ...

........................................................................
.............................. CYCLE   22 ..............................
........................................................................

 iter      E             dE          RMSdq      gap      omega  full diag
   1    -22.5109901 -0.225110E+02  0.233E-02    2.42       0.0  T
   2    -22.5109905 -0.437601E-06  0.136E-02    2.42       1.8  T
   3    -22.5109904  0.468541E-07  0.409E-03    2.42       6.1  T
   4    -22.5109905 -0.101670E-06  0.730E-04    2.42      34.2  T
   5    -22.5109906 -0.257802E-08  0.349E-04    2.42      71.7  T
     SCC iter.                  ...        0 min,  0.008 sec
     gradient                   ...        0 min,  0.001 sec
 * total energy  :   -22.2378640 Eh     change       -0.4346823E-04 Eh
   gradient norm :     0.0020428 Eh/α   predicted    -0.3318117E-04 ( -23.67%)
   displ. norm   :     0.0203668 α      lambda       -0.1665670E-04
   maximum displ.:     0.0105898 α      in ANC's #3, #10, #6, ...

........................................................................
.............................. CYCLE   23 ..............................
........................................................................

 iter      E             dE          RMSdq      gap      omega  full diag
   1    -22.5114510 -0.225115E+02  0.254E-02    2.42       0.0  T
   2    -22.5114511 -0.111189E-06  0.149E-02    2.42       1.7  T
   3    -22.5114511  0.166659E-07  0.188E-03    2.42      13.3  T
   4    -22.5114511 -0.350617E-07  0.500E-04    2.42      50.0  T
   5    -22.5114511 -0.622887E-09  0.226E-04    2.42     110.7  T
     SCC iter.                  ...        0 min,  0.002 sec
     gradient                   ...        0 min,  0.001 sec
 * total energy  :   -22.2378747 Eh     change       -0.1071594E-04 Eh
   gradient norm :     0.0006846 Eh/α   predicted    -0.8331396E-05 ( -22.25%)
   displ. norm   :     0.0355836 α      lambda       -0.6821612E-05
   maximum displ.:     0.0228092 α      in ANC's #3, #5, #10, ...

........................................................................
.............................. CYCLE   24 ..............................
........................................................................

 iter      E             dE          RMSdq      gap      omega  full diag
   1    -22.5115015 -0.225115E+02  0.459E-02    2.41       0.0  T
   2    -22.5115016 -0.109251E-06  0.271E-02    2.41       1.0  T
   3    -22.5115016 -0.100693E-07  0.164E-03    2.41      15.3  T
   4    -22.5115016 -0.236190E-07  0.719E-04    2.41      34.8  T
   5    -22.5115016 -0.894808E-09  0.338E-04    2.41      73.9  T
     SCC iter.                  ...        0 min,  0.003 sec
     gradient                   ...        0 min,  0.004 sec
 * total energy  :   -22.2378815 Eh     change       -0.6778516E-05 Eh
   gradient norm :     0.0013754 Eh/α   predicted    -0.3412999E-05 ( -49.65%)
   displ. norm   :     0.0585736 α      lambda       -0.9254664E-05
   maximum displ.:     0.0380211 α      in ANC's #3, #10, #5, ...

........................................................................
.............................. CYCLE   25 ..............................
........................................................................

 iter      E             dE          RMSdq      gap      omega  full diag
   1    -22.5112392 -0.225112E+02  0.720E-02    2.41       0.0  T
   2    -22.5112394 -0.165435E-06  0.426E-02    2.41       1.0  T
   3    -22.5112394 -0.386569E-07  0.202E-03    2.41      12.4  T
   4    -22.5112394 -0.265747E-07  0.999E-04    2.41      25.0  T
   5    -22.5112394 -0.132116E-08  0.347E-04    2.41      72.0  T
     SCC iter.                  ...        0 min,  0.004 sec
     gradient                   ...        0 min,  0.003 sec
 * total energy  :   -22.2378893 Eh     change       -0.7747270E-05 Eh
   gradient norm :     0.0019536 Eh/α   predicted    -0.4636039E-05 ( -40.16%)
   displ. norm   :     0.1073694 α      lambda       -0.1416341E-04
   maximum displ.:     0.0694760 α      in ANC's #3, #5, #1, ...

........................................................................
.............................. CYCLE   26 ..............................
........................................................................

 iter      E             dE          RMSdq      gap      omega  full diag
   1    -22.5106966 -0.225107E+02  0.129E-01    2.41       0.0  T
   2    -22.5106971 -0.529026E-06  0.763E-02    2.41       1.0  T
   3    -22.5106973 -0.150323E-06  0.354E-03    2.41       7.1  T
   4    -22.5106973 -0.677413E-07  0.183E-03    2.41      13.7  T
   5    -22.5106973 -0.551947E-08  0.840E-04    2.41      29.7  T
   6    -22.5106973 -0.138095E-08  0.241E-04    2.41     103.7  T
     SCC iter.                  ...        0 min,  0.007 sec
     gradient                   ...        0 min,  0.003 sec
 * total energy  :   -22.2378975 Eh     change       -0.8284737E-05 Eh
   gradient norm :     0.0024531 Eh/α   predicted    -0.7116751E-05 ( -14.10%)
   displ. norm   :     0.0136730 α      lambda       -0.8642282E-05
   maximum displ.:     0.0103100 α      in ANC's #1, #2, #4, ...

........................................................................
.............................. CYCLE   27 ..............................
........................................................................

 iter      E             dE          RMSdq      gap      omega  full diag
   1    -22.5110140 -0.225110E+02  0.735E-03    2.41       0.0  T
   2    -22.5110140 -0.183877E-07  0.433E-03    2.41       5.8  T
   3    -22.5110140  0.426780E-08  0.911E-04    2.41      27.4  T
   4    -22.5110140 -0.735516E-08  0.174E-04    2.41     144.0  T
     SCC iter.                  ...        0 min,  0.003 sec
     gradient                   ...        0 min,  0.001 sec
 * total energy  :   -22.2379045 Eh     change       -0.6932010E-05 Eh
   gradient norm :     0.0013129 Eh/α   predicted    -0.4320694E-05 ( -37.67%)
   displ. norm   :     0.0774451 α      lambda       -0.1154266E-04
   maximum displ.:     0.0477071 α      in ANC's #1, #3, #5, ...

........................................................................
.............................. CYCLE   28 ..............................
........................................................................

 iter      E             dE          RMSdq      gap      omega  full diag
   1    -22.5115043 -0.225115E+02  0.660E-02    2.42       0.0  T
   2    -22.5115045 -0.201142E-06  0.391E-02    2.42       1.0  T
   3    -22.5115045  0.229570E-07  0.289E-03    2.42       8.7  T
   4    -22.5115046 -0.901054E-07  0.958E-04    2.42      26.1  T
   5    -22.5115046 -0.641755E-09  0.342E-04    2.42      73.1  T
     SCC iter.                  ...        0 min,  0.004 sec
     gradient                   ...        0 min,  0.002 sec
 * total energy  :   -22.2379117 Eh     change       -0.7185965E-05 Eh
   gradient norm :     0.0010895 Eh/α   predicted    -0.5787331E-05 ( -19.46%)
   displ. norm   :     0.0241738 α      lambda       -0.1896158E-05
   maximum displ.:     0.0123434 α      in ANC's #3, #5, #1, ...

........................................................................
.............................. CYCLE   29 ..............................
........................................................................

 iter      E             dE          RMSdq      gap      omega  full diag
   1    -22.5113514 -0.225114E+02  0.263E-02    2.41       0.0  T
   2    -22.5113514 -0.236016E-07  0.156E-02    2.41       1.6  T
   3    -22.5113514 -0.926631E-08  0.620E-04    2.41      40.3  T
   4    -22.5113514 -0.730129E-09  0.360E-04    2.41      69.4  T
     SCC iter.                  ...        0 min,  0.002 sec
     gradient                   ...        0 min,  0.001 sec
 * total energy  :   -22.2379136 Eh     change       -0.1941071E-05 Eh
   gradient norm :     0.0004240 Eh/α   predicted    -0.9476523E-06 ( -51.18%)
   displ. norm   :     0.0203894 α      lambda       -0.1040298E-05
   maximum displ.:     0.0130905 α      in ANC's #1, #5, #6, ...

........................................................................
.............................. CYCLE   30 ..............................
........................................................................

 iter      E             dE          RMSdq      gap      omega  full diag
   1    -22.5113778 -0.225114E+02  0.125E-02    2.41       0.0  T
   2    -22.5113778 -0.111048E-07  0.738E-03    2.41       3.4  T
   3    -22.5113778 -0.181894E-08  0.457E-04    2.41      54.7  T
   4    -22.5113778 -0.128329E-08  0.217E-04    2.41     115.3  T
     SCC iter.                  ...        0 min,  0.002 sec
     gradient                   ...        0 min,  0.002 sec
 * total energy  :   -22.2379147 Eh     change       -0.1045790E-05 Eh
   gradient norm :     0.0002034 Eh/α   predicted    -0.5225506E-06 ( -50.03%)
   displ. norm   :     0.0175870 α      lambda       -0.5097590E-06
   maximum displ.:     0.0126976 α      in ANC's #1, #2, #5, ...

........................................................................
.............................. CYCLE   31 ..............................
........................................................................

 iter      E             dE          RMSdq      gap      omega  full diag
   1    -22.5113840 -0.225114E+02  0.729E-03    2.41       0.0  T
   2    -22.5113840 -0.410005E-08  0.431E-03    2.41       5.8  T
   3    -22.5113840 -0.435289E-09  0.343E-04    2.41      72.9  T
   4    -22.5113840 -0.953854E-09  0.143E-04    2.41     174.4  T
     SCC iter.                  ...        0 min,  0.004 sec
     gradient                   ...        0 min,  0.003 sec
 * total energy  :   -22.2379152 Eh     change       -0.5831694E-06 Eh
   gradient norm :     0.0002038 Eh/α   predicted    -0.2559714E-06 ( -56.11%)
   displ. norm   :     0.0174183 α      lambda       -0.4567866E-06
   maximum displ.:     0.0123125 α      in ANC's #1, #2, #3, ...

........................................................................
.............................. CYCLE   32 ..............................
........................................................................

 iter      E             dE          RMSdq      gap      omega  full diag
   1    -22.5114324 -0.225114E+02  0.118E-02    2.41       0.0  T
   2    -22.5114324 -0.666027E-08  0.697E-03    2.41       3.6  T
   3    -22.5114324  0.415170E-10  0.508E-04    2.41      49.2  T
   4    -22.5114324 -0.272433E-08  0.192E-04    2.41     130.3  T
     SCC iter.                  ...        0 min,  0.006 sec
     gradient                   ...        0 min,  0.004 sec
 * total energy  :   -22.2379157 Eh     change       -0.4954610E-06 Eh
   gradient norm :     0.0002200 Eh/α   predicted    -0.2269799E-06 ( -54.19%)
   displ. norm   :     0.0110614 α      lambda       -0.2024299E-06
   maximum displ.:     0.0078316 α      in ANC's #1, #3, #2, ...

........................................................................
.............................. CYCLE   33 ..............................
........................................................................

 iter      E             dE          RMSdq      gap      omega  full diag
   1    -22.5114053 -0.225114E+02  0.982E-03    2.41       0.0  T
   2    -22.5114053 -0.489551E-08  0.578E-03    2.41       4.3  T
   3    -22.5114053  0.232657E-09  0.442E-04    2.41      56.5  T
   4    -22.5114053 -0.209106E-08  0.160E-04    2.41     155.8  T
     SCC iter.                  ...        0 min,  0.005 sec
     gradient                   ...        0 min,  0.007 sec
 * total energy  :   -22.2379159 Eh     change       -0.2087217E-06 Eh
   gradient norm :     0.0000855 Eh/α   predicted    -0.1021143E-06 ( -51.08%)
   displ. norm   :     0.0049382 α      lambda       -0.4639839E-07
   maximum displ.:     0.0032531 α      in ANC's #3, #1, #2, ...

........................................................................
.............................. CYCLE   34 ..............................
........................................................................

 iter      E             dE          RMSdq      gap      omega  full diag
   1    -22.5114006 -0.225114E+02  0.605E-03    2.41       0.0  T
   2    -22.5114006 -0.121824E-08  0.356E-03    2.41       7.0  T
   3    -22.5114006 -0.253138E-09  0.194E-04    2.41     128.7  T
   4    -22.5114006 -0.321958E-09  0.940E-05    2.41     265.8  T
     SCC iter.                  ...        0 min,  0.002 sec
     gradient                   ...        0 min,  0.001 sec
 * total energy  :   -22.2379160 Eh     change       -0.4202943E-07 Eh
   gradient norm :     0.0000376 Eh/α   predicted    -0.2164186E-07 ( -48.51%)
   displ. norm   :     0.0011107 α      lambda       -0.7793748E-08
   maximum displ.:     0.0007878 α      in ANC's #1, #3, #5, ...

   *** GEOMETRY OPTIMIZATION CONVERGED AFTER 34 ITERATIONS ***

------------------------------------------------------------------------
 total energy gain   :        -0.0097822 Eh       -6.1384 kcal/mol
 total RMSD          :         0.7329737 a0        0.3879 Å
 total power (kW/mol):        -0.7553848 (step)  -67.8775 (real)
------------------------------------------------------------------------

 ANCopt (total)                0 d,  0 h,  0 min,  0.378 sec
 optimizer setup                ...        0 min,  0.000 sec (  0.043%)
 model hessian                  ...        0 min,  0.020 sec (  5.156%)
 ANC generation                 ...        0 min,  0.001 sec (  0.231%)
 coordinate transformation      ...        0 min,  0.000 sec (  0.131%)
 single point calculation       ...        0 min,  0.342 sec ( 90.338%)
 optimization log               ...        0 min,  0.004 sec (  0.976%)
 hessian update                 ...        0 min,  0.004 sec (  1.069%)
 rational function              ...        0 min,  0.006 sec (  1.499%)

================
 final structure:
================
16
 xtb: 6.7.1 (edcfbbe)
C           -1.24109866367323       -1.48800105662294        0.41550728815576
C           -1.55699864218455       -0.06523387908376        0.02337549365917
C           -0.94429458558397        0.55765176563343       -1.17479567701310
N           -0.60725958187759        1.01414280927171        0.15285780746105
C            0.68944609146694        0.88671039692650        0.76627111287642
C            1.78693863383026        0.02920908077737        0.19145167980206
O            1.73750063639558       -0.74892443159556       -0.72432270677301
H           -1.24246756447069       -1.59366881320053        1.50038499714066
H           -0.27286160935172       -1.79819217911541        0.03140992969249
H           -2.00023151162740       -2.15261221968286        0.00748652008645
H           -2.56521339929072        0.24548146267216        0.28797603701446
H           -1.51033191822319        1.27035893127449       -1.76202188316299
H           -0.22589099901557       -0.01987179001263       -1.74106817357086
H            0.54667850618765        0.55574415395845        1.80367389257347
H            1.11161106438015        1.90097269757974        0.82348164104604
H            2.74622839393817        0.20520451731987        0.72330964511203
 
 Bond Distances (Angstroems)
 ---------------------------
C1-C2=1.5092         C1-H8=1.0900         C1-H9=1.0868         C1-H10=1.0883        C2-C1=1.5092         C2-C3=1.4829         
C2-N4=1.4435         C2-H11=1.0877        C3-C2=1.4829         C3-N4=1.4438         C3-H12=1.0831        C3-H13=1.0818        
N4-C2=1.4435         N4-C3=1.4438         N4-C5=1.4401         C5-N4=1.4401         C5-C6=1.5067         C5-H14=1.0982        
C5-H15=1.1001        C6-C5=1.5067         C6-O7=1.2027         C6-H16=1.1109        O7-C6=1.2027         H8-C1=1.0900         
H9-C1=1.0868         H10-C1=1.0883        H11-C2=1.0877        H12-C3=1.0831        H13-C3=1.0818        H14-C5=1.0982        
H15-C5=1.1001        H16-C6=1.1109        
 C  H  Rav=1.0919 sigma=0.0089  Rmin=1.0818  Rmax=1.1109     9
 C  C  Rav=1.4996 sigma=0.0119  Rmin=1.4829  Rmax=1.5092     3
 N  C  Rav=1.4425 sigma=0.0017  Rmin=1.4401  Rmax=1.4438     3
 O  C  Rav=1.2027 sigma=0.0000  Rmin=1.2027  Rmax=1.2027     1
 
 selected bond angles (degree)
 --------------------
H8-C1-C2=110.47                H9-C1-C2=111.33                H9-C1-H8=108.98                H10-C1-C2=109.41               
H10-C1-H8=108.24               H10-C1-H9=108.34               C3-C2-C1=121.29                N4-C2-C1=122.95                
N4-C2-C3= 59.11                H11-C2-C1=113.59               H11-C2-C3=117.36               H11-C2-N4=111.99               
N4-C3-C2= 59.09                H12-C3-C2=119.90               H12-C3-N4=114.36               H13-C3-C2=118.23               
H13-C3-N4=119.68               H13-C3-H12=114.49              C3-N4-C2= 61.81                C5-N4-C2=124.36                
C5-N4-C3=125.02                C6-C5-N4=122.94                H14-C5-N4=108.18               H14-C5-C6=106.47               
H15-C5-N4=106.62               H15-C5-C6=105.37               H15-C5-H14=106.18              O7-C6-C5=128.96                
H16-C6-C5=110.87               H16-C6-O7=120.17               
 
 selected dihedral angles (degree)
 ---------------------------------
C3-C2-C1-H8=146.01            C3-C2-C1-H9= 24.79            C3-C2-C1-H10=265.07           N4-C2-C1-H8= 74.80            
N4-C2-C1-H9=313.57            N4-C2-C1-H10=193.86           H11-C2-C1-H8=294.46           H11-C2-C1-H9=173.24           
H11-C2-C1-H10= 53.53          N4-C3-C2-C1=247.79            N4-C3-C2-H11=100.47           H12-C3-C2-C1=145.65           
H12-C3-C2-N4=257.86           H12-C3-C2-H11=358.33          H13-C3-C2-C1=357.27           H13-C3-C2-N4=109.48           
H13-C3-C2-H11=209.95          C3-N4-C2-C1=109.48            C3-N4-C2-H11=250.37           C5-N4-C2-C1=354.51            
C5-N4-C2-C3=245.02            C5-N4-C2-H11=135.39           C2-N4-C3-H12=111.51           C2-N4-C3-H13=252.94           
C5-N4-C3-C2=113.98            C5-N4-C3-H12=225.49           C5-N4-C3-H13=  6.91           C6-C5-N4-C2= 65.49            
C6-C5-N4-C3=348.18            H14-C5-N4-C2=300.85           H14-C5-N4-C3=223.55           H15-C5-N4-C2=187.02           
H15-C5-N4-C3=109.71           O7-C6-C5-N4=351.79            O7-C6-C5-H14=117.18           O7-C6-C5-H15=229.67           
H16-C6-C5-N4=170.64           H16-C6-C5-H14=296.03          H16-C6-C5-H15= 48.52          
           -------------------------------------------------
          |                Final Singlepoint                |
           -------------------------------------------------

          ...................................................
          :                      SETUP                      :
          :.................................................:
          :  # basis functions                  37          :
          :  # atomic orbitals                  37          :
          :  # shells                           23          :
          :  # electrons                        40          :
          :  max. iterations                    40          :
          :  Hamiltonian                  GFN2-xTB          :
          :  restarted?                      false          :
          :  GBSA solvation                   true          :
          :  PC potential                    false          :
          :  electronic temp.          300.0000000     K    :
          :  accuracy                    1.0000000          :
          :  -> integral cutoff          0.2500000E+02      :
          :  -> integral neglect         0.1000000E-07      :
          :  -> SCF convergence          0.1000000E-05 Eh   :
          :  -> wf. convergence          0.1000000E-03 e    :
          :  Broyden damping             0.4000000          :
          :  net charge                          0          :
          :  unpaired electrons                  0          :
          ...................................................

 iter      E             dE          RMSdq      gap      omega  full diag
   1    -22.5114006 -0.225114E+02  0.309E-05    2.41       0.0  T
   2    -22.5114006 -0.179412E-11  0.200E-05    2.41    1248.2  T
   3    -22.5114006 -0.333955E-12  0.118E-05    2.41    2112.3  T

   *** convergence criteria satisfied after 3 iterations ***

         #    Occupation            Energy/Eh            Energy/eV
      -------------------------------------------------------------
         1        2.0000           -0.7311074             -19.8944
       ...           ...                  ...                  ...
        14        2.0000           -0.4837637             -13.1639
        15        2.0000           -0.4692396             -12.7687
        16        2.0000           -0.4576840             -12.4542
        17        2.0000           -0.4380693             -11.9205
        18        2.0000           -0.4338379             -11.8053
        19        2.0000           -0.4158439             -11.3157
        20        2.0000           -0.3608201              -9.8184 (HOMO)
        21                         -0.2722616              -7.4086 (LUMO)
        22                         -0.0706283              -1.9219
        23                          0.0139482               0.3795
        24                          0.0636615               1.7323
        25                          0.0937081               2.5499
       ...                                ...                  ...
        37                          0.6066956              16.5090
      -------------------------------------------------------------
                  HL-Gap            0.0885585 Eh            2.4098 eV
             Fermi-level           -0.3165409 Eh           -8.6135 eV

 SCC (total)                   0 d,  0 h,  0 min,  0.004 sec
 SCC setup                      ...        0 min,  0.000 sec (  4.191%)
 Dispersion                     ...        0 min,  0.000 sec (  1.147%)
 classical contributions        ...        0 min,  0.000 sec (  0.250%)
 integral evaluation            ...        0 min,  0.000 sec ( 10.319%)
 iterations                     ...        0 min,  0.001 sec ( 33.633%)
 molecular gradient             ...        0 min,  0.002 sec ( 46.151%)
 printout                       ...        0 min,  0.000 sec (  3.442%)

         :::::::::::::::::::::::::::::::::::::::::::::::::::::
         ::                     SUMMARY                     ::
         :::::::::::::::::::::::::::::::::::::::::::::::::::::
         :: total energy             -22.237915983247 Eh    ::
         :: total w/o Gsasa/hb       -22.229443237237 Eh    ::
         :: gradient norm              0.000038588556 Eh/a0 ::
         :: HOMO-LUMO gap              2.409800551925 eV    ::
         ::.................................................::
         :: SCC energy               -22.511371666082 Eh    ::
         :: -> isotropic ES            0.031575212976 Eh    ::
         :: -> anisotropic ES          0.002405595702 Eh    ::
         :: -> anisotropic XC          0.014551359545 Eh    ::
         :: -> dispersion             -0.010279967978 Eh    ::
         :: -> Gsolv                  -0.010439577160 Eh    ::
         ::    -> Gelec               -0.001966831150 Eh    ::
         ::    -> Gsasa               -0.010680889148 Eh    ::
         ::    -> Ghb                  0.000000000000 Eh    ::
         ::    -> Gshift               0.002208143139 Eh    ::
         :: repulsion energy           0.273455682836 Eh    ::
         :: add. restraining           0.000000000000 Eh    ::
         :: total charge              -0.000000000000 e     ::
         :::::::::::::::::::::::::::::::::::::::::::::::::::::

           -------------------------------------------------
          |                Property Printout                |
           -------------------------------------------------

    * Orbital Energies and Occupations

         #    Occupation            Energy/Eh            Energy/eV
      -------------------------------------------------------------
         1        2.0000           -0.7311074             -19.8944
       ...           ...                  ...                  ...
         8        2.0000           -0.5663225             -15.4104
         9        2.0000           -0.5568806             -15.1535
        10        2.0000           -0.5330079             -14.5039
        11        2.0000           -0.5254988             -14.2996
        12        2.0000           -0.5108963             -13.9022
        13        2.0000           -0.4993278             -13.5874
        14        2.0000           -0.4837637             -13.1639
        15        2.0000           -0.4692396             -12.7687
        16        2.0000           -0.4576840             -12.4542
        17        2.0000           -0.4380693             -11.9205
        18        2.0000           -0.4338379             -11.8053
        19        2.0000           -0.4158439             -11.3157
        20        2.0000           -0.3608201              -9.8184 (HOMO)
        21                         -0.2722616              -7.4086 (LUMO)
        22                         -0.0706283              -1.9219
        23                          0.0139482               0.3795
        24                          0.0636615               1.7323
        25                          0.0937081               2.5499
        26                          0.1349178               3.6713
        27                          0.1431149               3.8944
        28                          0.1585560               4.3145
        29                          0.1826822               4.9710
        30                          0.1881030               5.1185
        31                          0.2067042               5.6247
       ...                                ...                  ...
        37                          0.6066956              16.5090
      -------------------------------------------------------------
                  HL-Gap            0.0885585 Eh            2.4098 eV
             Fermi-level           -0.3165409 Eh           -8.6135 eV

     #   Z          covCN         q      C6AA      α(0)
     1   6 C        3.751    -0.110    22.671     6.790
     2   6 C        3.788     0.042    19.877     6.350
     3   6 C        3.738    -0.007    20.774     6.504
     4   7 N        2.724    -0.199    25.320     7.473
     5   6 C        3.734    -0.011    20.854     6.517
     6   6 C        2.754     0.211    23.525     7.942
     7   8 O        0.856    -0.348    20.674     6.096
     8   1 H        0.925     0.038     2.480     2.463
     9   1 H        0.925     0.051     2.308     2.376
    10   1 H        0.925     0.042     2.424     2.435
    11   1 H        0.925     0.035     2.514     2.479
    12   1 H        0.925     0.037     2.495     2.470
    13   1 H        0.925     0.042     2.420     2.433
    14   1 H        0.923     0.081     1.967     2.193
    15   1 H        0.923     0.078     2.002     2.213
    16   1 H        0.921     0.018     2.767     2.602

 Mol. C6AA /au·bohr⁶  :       2164.644425
 Mol. C8AA /au·bohr⁸  :      46888.605652
 Mol. α(0) /au        :         69.335924


Wiberg/Mayer (AO) data.
largest (>0.10) Wiberg bond orders for each atom

 ---------------------------------------------------------------------------
     #   Z sym  total        # sym  WBO       # sym  WBO       # sym  WBO
 ---------------------------------------------------------------------------
     1   6 C    3.996 --     2 C    1.015    10 H    0.982     9 H    0.981
                             8 H    0.981
     2   6 C    3.937 --     1 C    1.015     3 C    0.974    11 H    0.966
                             4 N    0.955
     3   6 C    3.933 --    12 H    0.975     2 C    0.974    13 H    0.970
                             4 N    0.963
     4   7 N    3.056 --     5 C    1.024     3 C    0.963     2 C    0.955
     5   6 C    3.991 --     4 N    1.024     6 C    1.005    15 H    0.933
                            14 H    0.927
     6   6 C    3.910 --     7 O    1.893     5 C    1.005    16 H    0.930
     7   8 O    2.085 --     6 C    1.893
     8   1 H    0.999 --     1 C    0.981
     9   1 H    0.997 --     1 C    0.981
    10   1 H    0.998 --     1 C    0.982
    11   1 H    0.999 --     2 C    0.966
    12   1 H    0.999 --     3 C    0.975
    13   1 H    0.998 --     3 C    0.970
    14   1 H    0.993 --     5 C    0.927
    15   1 H    0.994 --     5 C    0.933
    16   1 H    0.999 --     6 C    0.930
 ---------------------------------------------------------------------------

Topologies differ in total number of bonds
Writing topology from bond orders to xtbtopo.mol

molecular dipole:
                 x           y           z       tot (Debye)
 q only:       -0.296       0.421       0.701
   full:       -0.046       0.289       0.800       2.165
molecular quadrupole (traceless):
                xx          xy          yy          xz          yz          zz
 q only:       -0.114       4.131      -0.675       4.150      -0.638       0.789
  q+dip:        1.168       4.977      -2.109       4.627      -1.522       0.940
   full:        0.689       5.551      -1.877       4.689      -2.164       1.188

           -------------------------------------------------
          |                Geometry Summary                 |
           -------------------------------------------------

      molecular mass/u    :       99.1312544
   center of mass at/Å    :        0.0065370      -0.0013312      -0.0514032
  moments of inertia/u·Å² :        0.1269411E+03   0.2272559E+03   0.2591410E+03
rotational constants/cm⁻¹ :        0.1327989E+00   0.7417908E-01   0.6505198E-01

 * 14 selected distances

     #   Z          #   Z                                           value/Å
     1   6 C        2   6 C                                       1.5092472 (max)
     2   6 C        3   6 C                                       1.4829050
     2   6 C        4   7 N                                       1.4435458
     3   6 C        4   7 N                                       1.4438285
     4   7 N        5   6 C                                       1.4401253
     6   6 C        7   8 O                                       1.2027381
     1   6 C        8   1 H                                       1.0900126
     1   6 C        9   1 H                                       1.0868452
     1   6 C       10   1 H                                       1.0883344
     2   6 C       11   1 H                                       1.0876832
     3   6 C       12   1 H                                       1.0831365
     3   6 C       13   1 H                                       1.0818049 (min)
     5   6 C       14   1 H                                       1.0982377
     5   6 C       15   1 H                                       1.1001021

 * 4 distinct bonds (by element types)

   Z      Z             #   av. dist./Å        max./Å        min./Å
   1 H    6 C           8     1.0895196     1.1001021     1.0818049
   6 C    6 C           2     1.4960761     1.5092472     1.4829050
   6 C    7 N           3     1.4424999     1.4438285     1.4401253
   6 C    8 O           1     1.2027381     1.2027381     1.2027381


optimized geometry written to: xtbopt.xyz


           -------------------------------------------------
          | TOTAL ENERGY              -22.237915983247 Eh   |
          | GRADIENT NORM               0.000038588556 Eh/α |
          | HOMO-LUMO GAP               2.409800551925 eV   |
           -------------------------------------------------

------------------------------------------------------------------------
 * finished run on 2024/08/07 at 21:22:39.839     
------------------------------------------------------------------------
 total:
 * wall-time:     0 d,  0 h,  0 min,  0.408 sec
 *  cpu-time:     0 d,  0 h,  0 min,  2.878 sec
 * ratio c/w:     7.060 speedup
 SCF:
 * wall-time:     0 d,  0 h,  0 min,  0.011 sec
 *  cpu-time:     0 d,  0 h,  0 min,  0.085 sec
 * ratio c/w:     7.614 speedup
 ANC optimizer:
 * wall-time:     0 d,  0 h,  0 min,  0.384 sec
 *  cpu-time:     0 d,  0 h,  0 min,  2.711 sec
 * ratio c/w:     7.066 speedup

