16
 energy: -22.237915983247 gnorm: 0.000038588556 xtb: 6.7.1 (edcfbbe)
C           -1.24109866367323       -1.48800105662294        0.41550728815576
C           -1.55699864218455       -0.06523387908376        0.02337549365917
C           -0.94429458558397        0.55765176563343       -1.17479567701310
N           -0.60725958187759        1.01414280927171        0.15285780746105
C            0.68944609146694        0.88671039692650        0.76627111287642
C            1.78693863383026        0.02920908077737        0.19145167980206
O            1.73750063639558       -0.74892443159556       -0.72432270677301
H           -1.24246756447069       -1.59366881320053        1.50038499714066
H           -0.27286160935172       -1.79819217911541        0.03140992969249
H           -2.00023151162740       -2.15261221968286        0.00748652008645
H           -2.56521339929072        0.24548146267216        0.28797603701446
H           -1.51033191822319        1.27035893127449       -1.76202188316299
H           -0.22589099901557       -0.01987179001263       -1.74106817357086
H            0.54667850618765        0.55574415395845        1.80367389257347
H            1.11161106438015        1.90097269757974        0.82348164104604
H            2.74622839393817        0.20520451731987        0.72330964511203
