      -----------------------------------------------------------      
     |                   =====================                   |     
     |                           x T B                           |     
     |                   =====================                   |     
     |                         S. Grimme                         |     
     |          Mulliken Center for Theoretical Chemistry        |     
     |                    University of Bonn                     |     
      -----------------------------------------------------------      

   * xtb version 6.5.1 (fef0646) compiled by 'conda@b96dff2e9fd6' on 2023-01-04

   xtb is free software: you can redistribute it and/or modify it under
   the terms of the GNU Lesser General Public License as published by
   the Free Software Foundation, either version 3 of the License, or
   (at your option) any later version.
   
   xtb is distributed in the hope that it will be useful,
   but WITHOUT ANY WARRANTY; without even the implied warranty of
   MERCHANTABILITY or FITNESS FOR A PARTICULAR PURPOSE.  See the
   GNU Lesser General Public License for more details.
   
   Cite this work as:
   * C. Bannwarth, E. Caldeweyher, S. Ehlert, A. Hansen, P. Pracht,
     J. Seibert, S. Spicher, S. Grimme, WIREs Comput. Mol. Sci., 2020, 11,
     e01493. DOI: 10.1002/wcms.1493
   
   for GFN2-xTB:
   * C. Bannwarth, S. Ehlert and S. Grimme., J. Chem. Theory Comput., 2019,
     15, 1652-1671. DOI: 10.1021/acs.jctc.8b01176
   for GFN1-xTB:
   * S. Grimme, C. Bannwarth, P. Shushkov, J. Chem. Theory Comput., 2017,
     13, 1989-2009. DOI: 10.1021/acs.jctc.7b00118
   for GFN0-xTB:
   * P. Pracht, E. Caldeweyher, S. Ehlert, S. Grimme, ChemRxiv, 2019, preprint.
     DOI: 10.26434/chemrxiv.8326202.v1
   for GFN-FF:
   * S. Spicher and S. Grimme, Angew. Chem. Int. Ed., 2020, 59, 15665-15673.
     DOI: 10.1002/anie.202004239
   
   for ALPB and GBSA implicit solvation:
   * S. Ehlert, M. Stahn, S. Spicher, S. Grimme, J. Chem. Theory Comput.,
     2021, 17, 4250-4261. DOI: 10.1021/acs.jctc.1c00471
   
   for DFT-D4:
   * E. Caldeweyher, C. Bannwarth and S. Grimme, J. Chem. Phys., 2017,
     147, 034112. DOI: 10.1063/1.4993215
   * E. Caldeweyher, S. Ehlert, A. Hansen, H. Neugebauer, S. Spicher,
     C. Bannwarth and S. Grimme, J. Chem. Phys., 2019, 150, 154122.
     DOI: 10.1063/1.5090222
   * E. Caldeweyher, J.-M. Mewes, S. Ehlert and S. Grimme, Phys. Chem. Chem. Phys.
     2020, 22, 8499-8512. DOI: 10.1039/D0CP00502A
   
   for sTDA-xTB:
   * S. Grimme and C. Bannwarth, J. Chem. Phys., 2016, 145, 054103.
     DOI: 10.1063/1.4959605
   
   in the mass-spec context:
   * V. Asgeirsson, C. Bauer and S. Grimme, Chem. Sci., 2017, 8, 4879.
     DOI: 10.1039/c7sc00601b
   * J. Koopman and S. Grimme, ACS Omega 2019, 4, 12, 15120-15133.
     DOI: 10.1021/acsomega.9b02011
   
   for metadynamics refer to:
   * S. Grimme, J. Chem. Theory Comput., 2019, 155, 2847-2862
     DOI: 10.1021/acs.jctc.9b00143
   
   for SPH calculations refer to:
   * S. Spicher and S. Grimme, J. Chem. Theory Comput., 2021, 17, 1701-1714
     DOI: 10.1021/acs.jctc.0c01306
   
   with help from (in alphabetical order)
   P. Atkinson, C. Bannwarth, F. Bohle, G. Brandenburg, E. Caldeweyher
   M. Checinski, S. Dohm, S. Ehlert, S. Ehrlich, I. Gerasimov, C. Hölzer
   A. Katbashev, J. Koopman, C. Lavigne, S. Lehtola, F. März, M. Müller,
   F. Musil, H. Neugebauer, J. Pisarek, C. Plett, P. Pracht, F. Pultar,
   J. Seibert, P. Shushkov, S. Spicher, M. Stahn, M. Steiner, T. Strunk,
   J. Stückrath, T. Rose, and J. Unsleber
   
 * started run on 2024/06/14 at 02:58:46.733     

           -------------------------------------------------
          |                Calculation Setup                |
           -------------------------------------------------

          program call               : xtb crest_best.xyz --opt normal -c 0 --iterations 4000
          coordinate file            : crest_best.xyz
          omp threads                :                     8

   ID    Z sym.   atoms
    1    6 C      1-6, 8-20, 22
    2    7 N      7, 21
    3    1 H      23-34

           -------------------------------------------------
          |                 G F N 2 - x T B                 |
           -------------------------------------------------

        Reference                      10.1021/acs.jctc.8b01176
      * Hamiltonian:
        H0-scaling (s, p, d)           1.850000    2.230000    2.230000
        zeta-weighting                 0.500000
      * Dispersion:
        s8                             2.700000
        a1                             0.520000
        a2                             5.000000
        s9                             5.000000
      * Repulsion:
        kExp                           1.500000    1.000000
        rExp                           1.000000
      * Coulomb:
        alpha                          2.000000
        third order                    shell-resolved
        anisotropic                    true
        a3                             3.000000
        a5                             4.000000
        cn-shift                       1.200000
        cn-exp                         4.000000
        max-rad                        5.000000


          ...................................................
          :                      SETUP                      :
          :.................................................:
          :  # basis functions                 100          :
          :  # atomic orbitals                 100          :
          :  # shells                           56          :
          :  # electrons                       102          :
          :  max. iterations                  4000          :
          :  Hamiltonian                  GFN2-xTB          :
          :  restarted?                      false          :
          :  GBSA solvation                  false          :
          :  PC potential                    false          :
          :  electronic temp.          300.0000000     K    :
          :  accuracy                    1.0000000          :
          :  -> integral cutoff          0.2500000E+02      :
          :  -> integral neglect         0.1000000E-07      :
          :  -> SCF convergence          0.1000000E-05 Eh   :
          :  -> wf. convergence          0.1000000E-03 e    :
          :  Broyden damping             0.4000000          :
          ...................................................

 iter      E             dE          RMSdq      gap      omega  full diag
   1    -55.2791486 -0.552791E+02  0.549E+00    0.14       0.0  T
   2    -53.6746691  0.160448E+01  0.588E+00    1.03       1.0  T
   3    -54.9298220 -0.125515E+01  0.400E+00    1.47       1.0  T
   4    -55.1997922 -0.269970E+00  0.296E+00    0.22       1.0  T
   5    -55.2471017 -0.473094E-01  0.233E+00    0.54       1.0  T
   6    -55.1836297  0.634719E-01  0.288E+00    0.53       1.0  T
   7    -55.1922175 -0.858777E-02  0.275E+00    0.48       1.0  T
   8    -55.3377268 -0.145509E+00  0.213E+00    0.12       1.0  T
   9    -55.2458090  0.919178E-01  0.245E+00    0.38       1.0  T
  10    -55.3776677 -0.131859E+00  0.192E+00    0.12       1.0  T
  11    -55.4861075 -0.108440E+00  0.134E+00    0.07       1.0  T
  12    -55.5897249 -0.103617E+00  0.106E-01    0.01       1.0  T
  13    -55.5877799  0.194495E-02  0.209E-01    0.02       1.0  T
  14    -55.5862131  0.156684E-02  0.268E-01    0.01       1.0  T
  15    -55.5867635 -0.550453E-03  0.249E-01    0.02       1.0  T
  16    -55.5893740 -0.261041E-02  0.129E-01    0.01       1.0  T
  17    -55.5903140 -0.940059E-03  0.144E-02    0.01       1.2  T
  18    -55.5903198 -0.575833E-05  0.101E-02    0.01       1.7  T
  19    -55.5903208 -0.100177E-05  0.922E-03    0.01       1.9  T
  20    -55.5903256 -0.483248E-05  0.123E-03    0.01      14.0  T
  21    -55.5903257 -0.842898E-07  0.160E-04    0.01     107.1  T
  22    -55.5903257  0.993383E-08  0.445E-04    0.01      38.6  T

   *** convergence criteria satisfied after 22 iterations ***

         #    Occupation            Energy/Eh            Energy/eV
      -------------------------------------------------------------
         1        2.0000           -0.6707112             -18.2510
       ...           ...                  ...                  ...
        45        2.0000           -0.4217974             -11.4777
        46        2.0000           -0.4093453             -11.1389
        47        2.0000           -0.3933601             -10.7039
        48        2.0000           -0.3891516             -10.5894
        49        2.0000           -0.3733582             -10.1596
        50        2.0000           -0.3618050              -9.8452
        51        1.0892           -0.3258632              -8.8672 (HOMO)
        52        0.9108           -0.3255234              -8.8579 (LUMO)
        53                         -0.3058617              -8.3229
        54                         -0.2782694              -7.5721
        55                         -0.2463513              -6.7036
        56                         -0.2309971              -6.2857
       ...                                ...                  ...
       100                          0.7126299              19.3916
      -------------------------------------------------------------
                  HL-Gap            0.0003398 Eh            0.0092 eV
             Fermi-level           -0.3256933 Eh           -8.8626 eV

 SCC (total)                   0 d,  0 h,  0 min,  0.259 sec
 SCC setup                      ...        0 min,  0.000 sec (  0.068%)
 Dispersion                     ...        0 min,  0.001 sec (  0.274%)
 classical contributions        ...        0 min,  0.002 sec (  0.800%)
 integral evaluation            ...        0 min,  0.003 sec (  0.984%)
 iterations                     ...        0 min,  0.246 sec ( 94.747%)
 molecular gradient             ...        0 min,  0.007 sec (  2.878%)
 printout                       ...        0 min,  0.001 sec (  0.240%)

         :::::::::::::::::::::::::::::::::::::::::::::::::::::
         ::                     SUMMARY                     ::
         :::::::::::::::::::::::::::::::::::::::::::::::::::::
         :: total energy             -54.562478902284 Eh    ::
         :: gradient norm              0.106166659749 Eh/a0 ::
         :: HOMO-LUMO gap              0.009245355715 eV    ::
         ::.................................................::
         :: SCC energy               -55.590325676347 Eh    ::
         :: -> isotropic ES            0.014764370509 Eh    ::
         :: -> anisotropic ES          0.003802450652 Eh    ::
         :: -> anisotropic XC          0.039888264805 Eh    ::
         :: -> dispersion             -0.038483326640 Eh    ::
         :: repulsion energy           1.028434923045 Eh    ::
         :: add. restraining           0.000000000000 Eh    ::
         :: total charge              -0.000000001719 e     ::
         :::::::::::::::::::::::::::::::::::::::::::::::::::::

      ----------------------------------------------------------- 
     |                   =====================                   |
     |                        A N C O P T                        |
     |                   =====================                   |
     |               Approximate Normal Coordinate               |
     |                Rational Function Optimizer                |
      ----------------------------------------------------------- 

          ...................................................
          :                      SETUP                      :
          :.................................................:
          :   optimization level            normal          :
          :   max. optcycles                   200          :
          :   ANC micro-cycles                  20          :
          :   degrees of freedom                96          :
          :.................................................:
          :   RF solver                   davidson          :
          :   write xtbopt.log                true          :
          :   linear?                        false          :
          :   energy convergence         0.5000000E-05 Eh   :
          :   grad. convergence          0.1000000E-02 Eh/α :
          :   maximium RF displ.         1.0000000          :
          :   Hlow (freq-cutoff)         0.1000000E-01      :
          :   Hmax (freq-cutoff)         5.0000000          :
          :   S6 in model hess.         20.0000000          :
          ...................................................

generating ANC from model Hessian ...
Using Lindh-Hessian (1995)
 Shifting diagonal of input Hessian by    9.6367854043688320E-003
 Lowest  eigenvalues of input Hessian
    0.000000    0.000000    0.000000    0.000000    0.000000    0.000000
    0.010000    0.010517    0.010616    0.011785    0.013945    0.016121
    0.018020    0.019522    0.021046    0.021460    0.025793    0.027251
 Highest eigenvalues
    1.987842    2.054876    2.091678    2.107306    2.135158    2.221134


........................................................................
.............................. CYCLE    1 ..............................
........................................................................
   1    -55.5903257 -0.555903E+02  0.153E-04    0.01       0.0  T
   2    -55.5903190  0.670334E-05  0.107E-02    0.01       1.6  T
   3    -55.5903257 -0.670408E-05  0.103E-04    0.01     166.8  T
   4    -55.5903257 -0.587761E-09  0.217E-05    0.01     792.1  T
   5    -55.5903257  0.154259E-10  0.268E-05    0.01     638.9  T
     SCC iter.                  ...        0 min,  0.120 sec
     gradient                   ...        0 min,  0.009 sec
 * total energy  :   -54.5624789 Eh     change       -0.1137558E-07 Eh
   gradient norm :     0.1061674 Eh/α   predicted     0.0000000E+00 (-100.00%)
   displ. norm   :     0.1866309 α      lambda       -0.9059188E-02
   maximum displ.:     0.0714363 α      in ANC's #10, #16, #25, ...

........................................................................
.............................. CYCLE    2 ..............................
........................................................................
   1    -55.5791003 -0.555791E+02  0.392E-01    0.02       0.0  T
   2    -55.1458383  0.433262E+00  0.270E+00    0.93       1.0  T
   3    -55.4229422 -0.277104E+00  0.169E+00    0.10       1.0  T
   4    -55.5619657 -0.139023E+00  0.676E-01    0.03       1.0  T
   5    -55.5859727 -0.240070E-01  0.180E-01    0.01       1.0  T
   6    -55.5815541  0.441856E-02  0.330E-01    0.01       1.0  T
   7    -55.5873503 -0.579623E-02  0.871E-02    0.01       1.0  T
   8    -55.5872985  0.518469E-04  0.932E-02    0.01       1.0  T
   9    -55.5877983 -0.499799E-03  0.688E-03    0.01       2.5  T
  10    -55.5877979  0.369820E-06  0.718E-03    0.01       2.4  T
  11    -55.5878005 -0.258615E-05  0.264E-03    0.01       6.5  T
  12    -55.5877998  0.684480E-06  0.436E-03    0.01       3.9  T
  13    -55.5878009 -0.109009E-05  0.317E-04    0.01      54.0  T
  14    -55.5878009  0.108026E-07  0.533E-04    0.01      32.2  T
  15    -55.5878009 -0.155953E-07  0.121E-04    0.01     141.3  T
     SCC iter.                  ...        0 min,  0.173 sec
     gradient                   ...        0 min,  0.008 sec
 * total energy  :   -54.5689086 Eh     change       -0.6429708E-02 Eh
   gradient norm :     0.0469797 Eh/α   predicted    -0.4688279E-02 ( -27.08%)
   displ. norm   :     0.1927890 α      lambda       -0.3329129E-02
   maximum displ.:     0.0990335 α      in ANC's #10, #16, #7, ...

........................................................................
.............................. CYCLE    3 ..............................
........................................................................
   1    -55.5817194 -0.555817E+02  0.341E-01    0.02       0.0  T
   2    -55.1702752  0.411444E+00  0.263E+00    0.90       1.0  T
   3    -55.4920301 -0.321755E+00  0.129E+00    0.07       1.0  T
   4    -55.5864172 -0.943872E-01  0.186E-01    0.02       1.0  T
   5    -55.5863234  0.938290E-04  0.181E-01    0.02       1.0  T
   6    -55.5829797  0.334370E-02  0.299E-01    0.02       1.0  T
   7    -55.5879354 -0.495572E-02  0.662E-02    0.01       1.0  T
   8    -55.5881683 -0.232886E-03  0.208E-02    0.01       1.0  T
   9    -55.5881932 -0.248348E-04  0.218E-03    0.01       7.9  T
  10    -55.5881930  0.129305E-06  0.258E-03    0.01       6.6  T
  11    -55.5881934 -0.330014E-06  0.966E-04    0.01      17.7  T
  12    -55.5881932  0.158471E-06  0.192E-03    0.01       8.9  T
  13    -55.5881934 -0.214039E-06  0.895E-05    0.01     191.6  T
     SCC iter.                  ...        0 min,  0.181 sec
     gradient                   ...        0 min,  0.011 sec
 * total energy  :   -54.5707774 Eh     change       -0.1868788E-02 Eh
   gradient norm :     0.0090571 Eh/α   predicted    -0.1726536E-02 (  -7.61%)
   displ. norm   :     0.0881906 α      lambda       -0.2478675E-03
   maximum displ.:     0.0526893 α      in ANC's #10, #16, #7, ...

........................................................................
.............................. CYCLE    4 ..............................
........................................................................
   1    -55.5859194 -0.555859E+02  0.999E-02    0.01       0.0  T
   2    -55.2547762  0.331143E+00  0.235E+00    0.27       1.0  T
   3    -55.5860455 -0.331269E+00  0.803E-02    0.01       1.0  T
   4    -55.5862553 -0.209829E-03  0.488E-02    0.01       1.0  T
   5    -55.5863549 -0.996085E-04  0.236E-02    0.01       1.0  T
   6    -55.5863755 -0.205628E-04  0.131E-02    0.01       1.3  T
   7    -55.5863851 -0.963727E-05  0.229E-03    0.01       7.5  T
   8    -55.5863843  0.866723E-06  0.451E-03    0.01       3.8  T
   9    -55.5863854 -0.117650E-05  0.183E-04    0.01      93.9  T
  10    -55.5863854  0.584248E-07  0.101E-03    0.01      17.0  T
  11    -55.5863854 -0.588754E-07  0.460E-05    0.01     372.8  T
  12    -55.5863854  0.424130E-09  0.940E-05    0.01     182.4  T
     SCC iter.                  ...        0 min,  0.159 sec
     gradient                   ...        0 min,  0.007 sec
 * total energy  :   -54.5709510 Eh     change       -0.1735790E-03 Eh
   gradient norm :     0.0052526 Eh/α   predicted    -0.1283748E-03 ( -26.04%)
   displ. norm   :     0.0621250 α      lambda       -0.8421046E-04
   maximum displ.:     0.0341299 α      in ANC's #7, #10, #16, ...

........................................................................
.............................. CYCLE    5 ..............................
........................................................................
   1    -55.5847019 -0.555847E+02  0.101E-01    0.01       0.0  T
   2    -55.2485030  0.336199E+00  0.237E+00    0.29       1.0  T
   3    -55.5851180 -0.336615E+00  0.486E-02    0.01       1.0  T
   4    -55.5852057 -0.876643E-04  0.251E-02    0.01       1.0  T
   5    -55.5851778  0.278341E-04  0.322E-02    0.01       1.0  T
   6    -55.5852342 -0.563852E-04  0.754E-03    0.01       2.3  T
   7    -55.5852372 -0.298707E-05  0.253E-03    0.01       6.8  T
   8    -55.5852371  0.118441E-06  0.285E-03    0.01       6.0  T
   9    -55.5852375 -0.424371E-06  0.857E-04    0.01      20.0  T
  10    -55.5852375 -0.364273E-07  0.338E-04    0.01      50.7  T
     SCC iter.                  ...        0 min,  0.167 sec
     gradient                   ...        0 min,  0.013 sec
 * total energy  :   -54.5709994 Eh     change       -0.4836909E-04 Eh
   gradient norm :     0.0022113 Eh/α   predicted    -0.4236021E-04 ( -12.42%)
   displ. norm   :     0.0163840 α      lambda       -0.8005565E-05
   maximum displ.:     0.0105554 α      in ANC's #3, #7, #16, ...

........................................................................
.............................. CYCLE    6 ..............................
........................................................................
   1    -55.5850808 -0.555851E+02  0.553E-02    0.01       0.0  T
   2    -55.3050347  0.280046E+00  0.217E+00    0.17       1.0  T
   3    -55.5852501 -0.280215E+00  0.115E-02    0.01       1.5  T
   4    -55.5852536 -0.345129E-05  0.804E-03    0.01       2.1  T
   5    -55.5852548 -0.120791E-05  0.625E-03    0.01       2.7  T
   6    -55.5852564 -0.159133E-05  0.336E-03    0.01       5.1  T
   7    -55.5852569 -0.505226E-06  0.159E-03    0.01      10.8  T
   8    -55.5852570 -0.146367E-06  0.218E-04    0.01      78.8  T
   9    -55.5852570 -0.154788E-08  0.139E-04    0.01     123.2  T
     SCC iter.                  ...        0 min,  0.158 sec
     gradient                   ...        0 min,  0.009 sec
 * total energy  :   -54.5710049 Eh     change       -0.5569926E-05 Eh
   gradient norm :     0.0009632 Eh/α   predicted    -0.4005038E-05 ( -28.10%)
   displ. norm   :     0.0257885 α      lambda       -0.3804880E-05
   maximum displ.:     0.0215817 α      in ANC's #3, #7, #1, ...

........................................................................
.............................. CYCLE    7 ..............................
........................................................................
   1    -55.5851677 -0.555852E+02  0.717E-02    0.01       0.0  T
   2    -55.2704616  0.314706E+00  0.230E+00    0.22       1.0  T
   3    -55.5854287 -0.314967E+00  0.265E-02    0.01       1.0  T
   4    -55.5854594 -0.307199E-04  0.119E-02    0.01       1.4  T
   5    -55.5854643 -0.497183E-05  0.723E-03    0.01       2.4  T
   6    -55.5854672 -0.284850E-05  0.110E-03    0.01      15.7  T
   7    -55.5854672 -0.498596E-07  0.236E-04    0.01      72.7  T
   8    -55.5854672  0.155258E-07  0.569E-04    0.01      30.1  T
     SCC iter.                  ...        0 min,  0.149 sec
     gradient                   ...        0 min,  0.008 sec
 * total energy  :   -54.5710076 Eh     change       -0.2623330E-05 Eh
   gradient norm :     0.0007890 Eh/α   predicted    -0.1903530E-05 ( -27.44%)
   displ. norm   :     0.0100020 α      lambda       -0.8905490E-06
   maximum displ.:     0.0091127 α      in ANC's #3, #1, #10, ...

   *** GEOMETRY OPTIMIZATION CONVERGED AFTER 7 ITERATIONS ***

------------------------------------------------------------------------
 total energy gain   :        -0.0085286 Eh       -5.3518 kcal/mol
 total RMSD          :         0.0870408 a0        0.0461 Å
 total power (kW/mol):        -3.1988520 (step)  -18.3847 (real)
------------------------------------------------------------------------

 ANCopt (total)                0 d,  0 h,  0 min,  1.218 sec
 optimizer setup                ...        0 min,  0.000 sec (  0.007%)
 model hessian                  ...        0 min,  0.005 sec (  0.386%)
 ANC generation                 ...        0 min,  0.003 sec (  0.259%)
 coordinate transformation      ...        0 min,  0.000 sec (  0.015%)
 single point calculation       ...        0 min,  1.201 sec ( 98.588%)
 optimization log               ...        0 min,  0.001 sec (  0.074%)
 hessian update                 ...        0 min,  0.000 sec (  0.010%)
 rational function              ...        0 min,  0.001 sec (  0.053%)

================
 final structure:
================
34
 xtb: 6.5.1 (fef0646)
C           -6.59755958179335        0.09290477018851       -0.01688395017826
C           -5.60650207540292        1.02768916798392       -0.01414697736890
C           -4.25305256257490        0.60633434838173       -0.00492383746954
C           -3.17905471584223        1.49239582786605       -0.00245438982306
C           -1.87400295179278        1.02262156452050        0.00475644302894
C           -0.71928243496912        1.85266361431174        0.00619909061071
N            0.49300240373161        1.41847541949028        0.00938592038540
C            0.77383357066339        0.07716207761661        0.01232587335071
C            2.15646149311391       -0.32669557364708        0.01122049523190
C            3.18805985168263        0.53210356957447        0.00506512489118
C            4.56837255408374        0.11023616891102        0.00015322422441
C            5.61772568517824        1.04730178142216       -0.00657316912774
C            6.93563083692752        0.63516211900460       -0.01297573684167
C            7.26285143678843       -0.71009168227569       -0.01291477984220
C            6.24104567041349       -1.66319940278042       -0.00594108476348
C            4.96298021389424       -1.20902515873350        0.00022678181332
C           -0.27616175459889       -0.78870156562514        0.01432354392975
C           -1.61356113886292       -0.39800082817008        0.01022259385058
C           -2.69404881690518       -1.27971839953644        0.00916842960065
C           -4.00230903585786       -0.80651118698587        0.00128608143729
N           -5.01585058990561       -1.70888576343968       -0.00110626287281
C           -6.23705718513032       -1.27603256418295       -0.00982848593922
H           -7.63981793245261        0.37214685897876       -0.02426897314604
H           -5.82646395299375        2.08683701730159       -0.01917414712430
H           -3.36473558705223        2.55843205687276       -0.00697739394595
H           -0.84058525271778        2.93011569897467        0.00405924434789
H            2.34143547531637       -1.39252095840558        0.01387398140682
H            2.99272327200929        1.59540541936770        0.00258017698204
H            5.37179331108667        2.10007413400719       -0.00685819483552
H            7.72424324279437        1.37442348351476       -0.01827999294212
H            8.29452904529432       -1.03012105149119       -0.01821787346960
H            6.47715210466267       -2.71681287833259       -0.00572073769241
H           -2.52547458707417       -2.34474440345067        0.01339913454440
H           -7.00886587851427       -2.03600011173213       -0.01169742145313

 Bond Distances (Angstroems)
 ---------------------------
C1-C2=1.3624         C1-C22=1.4156        C1-H23=1.0790        C2-C1=1.3624         C2-C3=1.4176         C2-H24=1.0818        
C3-C2=1.4176         C3-C4=1.3923         C3-C20=1.4349        C4-C3=1.3923         C4-C5=1.3870         C4-H25=1.0821        
C5-C4=1.3870         C5-C6=1.4221         C5-C18=1.4443        C6-C5=1.4221         C6-N7=1.2877         C6-H26=1.0843        
N7-C6=1.2877         N7-C8=1.3704         C8-N7=1.3704         C8-C9=1.4404         C8-C17=1.3610        C9-C8=1.4404         
C9-C10=1.3423        C9-H27=1.0818        C10-C9=1.3423        C10-C11=1.4434       C10-H28=1.0811       C11-C10=1.4434       
C11-C12=1.4069       C11-C16=1.3770       C12-C11=1.4069       C12-C13=1.3809       C12-H29=1.0811       C13-C12=1.3809       
C13-C14=1.3845       C13-H30=1.0809       C14-C13=1.3845       C14-C15=1.3973       C14-H31=1.0802       C15-C14=1.3973       
C15-C16=1.3564       C15-H32=1.0797       C16-C11=1.3770       C16-C15=1.3564       C17-C8=1.3610        C17-C18=1.3933       
C18-C5=1.4443        C18-C17=1.3933       C18-C19=1.3946       C19-C18=1.3946       C19-C20=1.3912       C19-H33=1.0783       
C20-C3=1.4349        C20-C19=1.3912       C20-N21=1.3570       N21-C20=1.3570       N21-C22=1.2957       C22-C1=1.4156        
C22-N21=1.2957       C22-H34=1.0832       H23-C1=1.0790        H24-C2=1.0818        H25-C4=1.0821        H26-C6=1.0843        
H27-C9=1.0818        H28-C10=1.0811       H29-C12=1.0811       H30-C13=1.0809       H31-C14=1.0802       H32-C15=1.0797       
H33-C19=1.0783       H34-C22=1.0832       
 C  H  Rav=1.0811 sigma=0.0016  Rmin=1.0783  Rmax=1.0843    12
 C  C  Rav=1.3974 sigma=0.0287  Rmin=1.3423  Rmax=1.4443    21
 N  C  Rav=1.3277 sigma=0.0364  Rmin=1.2877  Rmax=1.3704     4

 selected bond angles (degree)
 --------------------
C22-C1-C2=118.57               H23-C1-C2=121.68               H23-C1-C22=119.75              C3-C2-C1=119.38                
H24-C2-C1=121.59               H24-C2-C3=119.03               C4-C3-C2=123.18                C20-C3-C2=117.36               
C20-C3-C4=119.46               C5-C4-C3=120.68                H25-C4-C3=119.64               H25-C4-C5=119.68               
C6-C5-C4=124.49                C18-C5-C4=120.19               C18-C5-C6=115.32               N7-C6-C5=124.59                
H26-C6-C5=119.29               H26-C6-N7=116.13               C8-N7-C6=121.53                C9-C8-N7=118.11                
C17-C8-N7=117.69               C17-C8-C9=124.21               C10-C9-C8=123.94               H27-C9-C8=116.13               
H27-C9-C10=119.93              C11-C10-C9=123.23              H28-C10-C9=119.37              H28-C10-C11=117.40             

 selected dihedral angles (degree)
 ---------------------------------
C3-C2-C1-C22=  0.02           C3-C2-C1-H23=180.03           H24-C2-C1-C22=180.00          H24-C2-C1-H23=  0.00          
C4-C3-C2-C1=179.96            C4-C3-C2-H24=359.98           C20-C3-C2-C1=  0.00           C20-C3-C2-H24=180.01          
C5-C4-C3-C2=180.09            C5-C4-C3-C20=  0.06           H25-C4-C3-C2=  0.05           H25-C4-C3-C20=180.01          
C6-C5-C4-C3=179.92            C6-C5-C4-H25=359.97           C18-C5-C4-C3=  0.00           C18-C5-C4-H25=180.03          
N7-C6-C5-C4=180.19            N7-C6-C5-C18=  0.14           H26-C6-C5-C4=  0.16           H26-C6-C5-C18=180.11          
C8-N7-C6-C5=359.97            C8-N7-C6-H26=180.00           C9-C8-N7-C6=179.79            C17-C8-N7-C6=359.88           
C10-C9-C8-N7=359.88           C10-C9-C8-C17=179.78          H27-C9-C8-N7=179.98           H27-C9-C8-C17=359.89          
C11-C10-C9-C8=180.18          C11-C10-C9-H27=  0.07         H28-C10-C9-C8=  0.12          H28-C10-C9-H27=180.01         
           -------------------------------------------------
          |                Final Singlepoint                |
           -------------------------------------------------

          ...................................................
          :                      SETUP                      :
          :.................................................:
          :  # basis functions                 100          :
          :  # atomic orbitals                 100          :
          :  # shells                           56          :
          :  # electrons                       102          :
          :  max. iterations                  4000          :
          :  Hamiltonian                  GFN2-xTB          :
          :  restarted?                      false          :
          :  GBSA solvation                  false          :
          :  PC potential                    false          :
          :  electronic temp.          300.0000000     K    :
          :  accuracy                    1.0000000          :
          :  -> integral cutoff          0.2500000E+02      :
          :  -> integral neglect         0.1000000E-07      :
          :  -> SCF convergence          0.1000000E-05 Eh   :
          :  -> wf. convergence          0.1000000E-03 e    :
          :  Broyden damping             0.4000000          :
          ...................................................

 iter      E             dE          RMSdq      gap      omega  full diag
   1    -55.5854672 -0.555855E+02  0.298E-04    0.01       0.0  T
   2    -55.5854427  0.245614E-04  0.204E-02    0.01       1.0  T
   3    -55.5854672 -0.245610E-04  0.309E-04    0.01      55.5  T
   4    -55.5854672 -0.478003E-08  0.115E-04    0.01     148.5  T
   5    -55.5854672 -0.505601E-09  0.686E-05    0.01     250.0  T

   *** convergence criteria satisfied after 5 iterations ***

         #    Occupation            Energy/Eh            Energy/eV
      -------------------------------------------------------------
         1        2.0000           -0.6693403             -18.2137
       ...           ...                  ...                  ...
        45        2.0000           -0.4191560             -11.4058
        46        2.0000           -0.4063797             -11.0582
        47        2.0000           -0.3950671             -10.7503
        48        2.0000           -0.3879630             -10.5570
        49        2.0000           -0.3706834             -10.0868
        50        2.0000           -0.3664740              -9.9723
        51        1.1400           -0.3231184              -8.7925 (HOMO)
        52        0.8600           -0.3225829              -8.7779 (LUMO)
        53                         -0.3007509              -8.1838
        54                         -0.2734302              -7.4404
        55                         -0.2434372              -6.6243
        56                         -0.2331983              -6.3456
       ...                                ...                  ...
       100                          0.7148665              19.4525
      -------------------------------------------------------------
                  HL-Gap            0.0005356 Eh            0.0146 eV
             Fermi-level           -0.3228506 Eh           -8.7852 eV

 SCC (total)                   0 d,  0 h,  0 min,  0.133 sec
 SCC setup                      ...        0 min,  0.000 sec (  0.075%)
 Dispersion                     ...        0 min,  0.000 sec (  0.192%)
 classical contributions        ...        0 min,  0.000 sec (  0.034%)
 integral evaluation            ...        0 min,  0.005 sec (  3.852%)
 iterations                     ...        0 min,  0.120 sec ( 90.280%)
 molecular gradient             ...        0 min,  0.007 sec (  5.127%)
 printout                       ...        0 min,  0.001 sec (  0.425%)

         :::::::::::::::::::::::::::::::::::::::::::::::::::::
         ::                     SUMMARY                     ::
         :::::::::::::::::::::::::::::::::::::::::::::::::::::
         :: total energy             -54.571007569110 Eh    ::
         :: gradient norm              0.000787886146 Eh/a0 ::
         :: HOMO-LUMO gap              0.014573487891 eV    ::
         ::.................................................::
         :: SCC energy               -55.585467247869 Eh    ::
         :: -> isotropic ES            0.014105415097 Eh    ::
         :: -> anisotropic ES          0.003315174491 Eh    ::
         :: -> anisotropic XC          0.040891625189 Eh    ::
         :: -> dispersion             -0.038297785830 Eh    ::
         :: repulsion energy           1.015044430420 Eh    ::
         :: add. restraining           0.000000000000 Eh    ::
         :: total charge              -0.000000000158 e     ::
         :::::::::::::::::::::::::::::::::::::::::::::::::::::

           -------------------------------------------------
          |                Property Printout                |
           -------------------------------------------------

    * Orbital Energies and Occupations

         #    Occupation            Energy/Eh            Energy/eV
      -------------------------------------------------------------
         1        2.0000           -0.6693403             -18.2137
       ...           ...                  ...                  ...
        39        2.0000           -0.4496660             -12.2360
        40        2.0000           -0.4445099             -12.0957
        41        2.0000           -0.4442069             -12.0875
        42        2.0000           -0.4406661             -11.9911
        43        2.0000           -0.4260594             -11.5937
        44        2.0000           -0.4253140             -11.5734
        45        2.0000           -0.4191560             -11.4058
        46        2.0000           -0.4063797             -11.0582
        47        2.0000           -0.3950671             -10.7503
        48        2.0000           -0.3879630             -10.5570
        49        2.0000           -0.3706834             -10.0868
        50        2.0000           -0.3664740              -9.9723
        51        1.1400           -0.3231184              -8.7925 (HOMO)
        52        0.8600           -0.3225829              -8.7779 (LUMO)
        53                         -0.3007509              -8.1838
        54                         -0.2734302              -7.4404
        55                         -0.2434372              -6.6243
        56                         -0.2331983              -6.3456
        57                         -0.2188468              -5.9551
        58                         -0.1968618              -5.3569
        59                         -0.1891554              -5.1472
        60                         -0.1566257              -4.2620
        61                         -0.1057725              -2.8782
        62                         -0.0726498              -1.9769
       ...                                ...                  ...
       100                          0.7148665              19.4525
      -------------------------------------------------------------
                  HL-Gap            0.0005356 Eh            0.0146 eV
             Fermi-level           -0.3228506 Eh           -8.7852 eV

     #   Z          covCN         q      C6AA      α(0)
     1   6 C        2.909    -0.041    29.014     8.832
     2   6 C        2.921    -0.016    28.401     8.739
     3   6 C        2.982     0.003    27.945     8.671
     4   6 C        2.914    -0.038    28.938     8.821
     5   6 C        2.982    -0.001    28.045     8.687
     6   6 C        2.877     0.057    26.719     8.474
     7   7 N        1.847    -0.198    26.121     7.575
     8   6 C        2.932     0.095    25.887     8.344
     9   6 C        2.905    -0.035    28.873     8.811
    10   6 C        2.903    -0.028    28.703     8.785
    11   6 C        2.970     0.030    27.333     8.576
    12   6 C        2.937    -0.032    28.798     8.801
    13   6 C        2.915    -0.035    28.866     8.810
    14   6 C        2.931    -0.028    28.691     8.784
    15   6 C        2.913    -0.020    28.502     8.754
    16   6 C        2.027    -0.061    32.646     9.228
    17   6 C        2.002    -0.103    33.886     9.401
    18   6 C        2.983     0.033    27.247     8.562
    19   6 C        2.921    -0.039    28.961     8.825
    20   6 C        2.966     0.089    26.008     8.365
    21   7 N        1.841    -0.228    26.833     7.677
    22   6 C        2.900     0.070    26.430     8.429
    23   1 H        0.926     0.035     2.513     2.479
    24   1 H        0.925     0.034     2.524     2.485
    25   1 H        0.925     0.037     2.491     2.468
    26   1 H        0.925     0.044     2.397     2.421
    27   1 H        0.925     0.053     2.286     2.364
    28   1 H        0.926     0.053     2.277     2.360
    29   1 H        0.926     0.042     2.425     2.435
    30   1 H        0.926     0.037     2.490     2.468
    31   1 H        0.926     0.038     2.481     2.463
    32   1 H        0.926     0.046     2.374     2.410
    33   1 H        0.926     0.065     2.142     2.289
    34   1 H        0.925     0.039     2.458     2.452

 Mol. C6AA /au·bohr⁶  :      18371.106233
 Mol. C8AA /au·bohr⁸  :     471426.107163
 Mol. α(0) /au        :        219.045857


Wiberg/Mayer (AO) data.
largest (>0.10) Wiberg bond orders for each atom

 ---------------------------------------------------------------------------
     #   Z sym  total        # sym  WBO       # sym  WBO       # sym  WBO
 ---------------------------------------------------------------------------
     1   6 C    3.973 --     2 C    1.596    22 C    1.260    23 H    0.970
     2   6 C    3.984 --     1 C    1.596     3 C    1.247    24 H    0.967
                            21 N    0.107
     3   6 C    3.980 --     4 C    1.366     2 C    1.247    20 C    1.184
     4   6 C    3.986 --     5 C    1.390     3 C    1.366    25 H    0.961
                            19 C    0.130
     5   6 C    3.923 --     4 C    1.390     6 C    1.209    18 C    1.137
     6   6 C    3.970 --     7 N    1.626     5 C    1.209    26 H    0.948
                            17 C    0.106
     7   7 N    3.037 --     6 C    1.626     8 C    1.168
     8   6 C    3.932 --    17 C    1.478     7 N    1.168     9 C    1.124
     9   6 C    3.981 --    10 C    1.733     8 C    1.124    27 H    0.960
    10   6 C    3.953 --     9 C    1.733    11 C    1.119    28 H    0.961
    11   6 C    3.953 --    16 C    1.379    12 C    1.306    10 C    1.119
                            14 C    0.101
    12   6 C    3.918 --    13 C    1.464    11 C    1.306    29 H    0.959
                            15 C    0.106
    13   6 C    3.990 --    12 C    1.464    14 C    1.439    30 H    0.963
    14   6 C    3.917 --    13 C    1.439    15 C    1.358    31 H    0.964
                            11 C    0.101
    15   6 C    3.959 --    16 C    1.510    14 C    1.358    32 H    0.956
                            12 C    0.106
    16   6 C    3.120 --    15 C    1.510    11 C    1.379
    17   6 C    3.106 --     8 C    1.478    18 C    1.298     6 C    0.106
    18   6 C    3.962 --    19 C    1.353    17 C    1.298     5 C    1.137
    19   6 C    3.957 --    20 C    1.370    18 C    1.353    33 H    0.964
                             4 C    0.130
    20   6 C    3.980 --    19 C    1.370    21 N    1.243     3 C    1.184
    21   7 N    3.060 --    22 C    1.598    20 C    1.243     2 C    0.107
    22   6 C    3.967 --    21 N    1.598     1 C    1.260    34 H    0.962
    23   1 H    0.998 --     1 C    0.970
    24   1 H    0.998 --     2 C    0.967
    25   1 H    0.993 --     4 C    0.961
    26   1 H    0.982 --     6 C    0.948
    27   1 H    0.996 --     9 C    0.960
    28   1 H    0.996 --    10 C    0.961
    29   1 H    0.987 --    12 C    0.959
    30   1 H    0.990 --    13 C    0.963
    31   1 H    0.989 --    14 C    0.964
    32   1 H    0.982 --    15 C    0.956
    33   1 H    0.992 --    19 C    0.964
    34   1 H    0.998 --    22 C    0.962
 ---------------------------------------------------------------------------

Topologies differ in total number of bonds
Writing topology from bond orders to xtbtopo.mol

molecular dipole:
                 x           y           z       tot (Debye)
 q only:        0.156       0.446      -0.005
   full:       -0.270       1.041      -0.011       2.733
molecular quadrupole (traceless):
                xx          xy          yy          xz          yz          zz
 q only:       12.914      -5.243      -3.710       0.019      -0.018      -9.204
  q+dip:       25.581     -11.282      -3.951       0.038      -0.047     -21.629
   full:       20.892     -11.123      -8.514       0.028      -0.012     -12.378

           -------------------------------------------------
          |                Geometry Summary                 |
           -------------------------------------------------

      molecular mass/u    :      280.3234134
   center of mass at/Å    :       -0.0050094      -0.0002821      -0.0003652
  moments of inertia/u·Å² :        0.3518691E+03   0.5588518E+04   0.5940337E+04
rotational constants/cm⁻¹ :        0.4790882E-01   0.3016477E-02   0.2837824E-02

 * 33 selected distances

     #   Z          #   Z                                           value/Å
     1   6 C        2   6 C                                       1.3623600
     2   6 C        3   6 C                                       1.4175510
     3   6 C        4   6 C                                       1.3923300
     4   6 C        5   6 C                                       1.3870473
     5   6 C        6   6 C                                       1.4220941
     6   6 C        7   7 N                                       1.2876973
     7   7 N        8   6 C                                       1.3704002
     9   6 C       10   6 C                                       1.3423000
    11   6 C       12   6 C                                       1.4068687
    12   6 C       13   6 C                                       1.3808600
    13   6 C       14   6 C                                       1.3844788
    14   6 C       15   6 C                                       1.3973369
    11   6 C       16   6 C                                       1.3770134
    15   6 C       16   6 C                                       1.3563790
     8   6 C       17   6 C                                       1.3609608
    18   6 C       19   6 C                                       1.3945899
     3   6 C       20   6 C                                       1.4349369 (max)
    19   6 C       20   6 C                                       1.3912341
    20   6 C       21   7 N                                       1.3570381
     1   6 C       22   6 C                                       1.4156276
    21   7 N       22   6 C                                       1.2956789
     1   6 C       23   1 H                                       1.0790428
     2   6 C       24   1 H                                       1.0817592
     4   6 C       25   1 H                                       1.0820958
     6   6 C       26   1 H                                       1.0842611
     9   6 C       27   1 H                                       1.0817608
    10   6 C       28   1 H                                       1.0810983
    12   6 C       29   1 H                                       1.0811164
    13   6 C       30   1 H                                       1.0809465
    14   6 C       31   1 H                                       1.0801879
    15   6 C       32   1 H                                       1.0797444
    19   6 C       33   1 H                                       1.0782930 (min)
    22   6 C       34   1 H                                       1.0831634

 * 3 distinct bonds (by element types)

   Z      Z             #   av. dist./Å        max./Å        min./Å
   1 H    6 C          12     1.0811225     1.0842611     1.0782930
   6 C    6 C          17     1.3896452     1.4349369     1.3423000
   6 C    7 N           4     1.3277036     1.3704002     1.2876973


optimized geometry written to: xtbopt.xyz


           -------------------------------------------------
          | TOTAL ENERGY              -54.571007569110 Eh   |
          | GRADIENT NORM               0.000787886146 Eh/α |
          | HOMO-LUMO GAP               0.014573487891 eV   |
           -------------------------------------------------

------------------------------------------------------------------------
 * finished run on 2024/06/14 at 02:58:48.371     
------------------------------------------------------------------------
 total:
 * wall-time:     0 d,  0 h,  0 min,  1.638 sec
 *  cpu-time:     0 d,  0 h,  0 min,  7.857 sec
 * ratio c/w:     4.797 speedup
 SCF:
 * wall-time:     0 d,  0 h,  0 min,  0.260 sec
 *  cpu-time:     0 d,  0 h,  0 min,  1.413 sec
 * ratio c/w:     5.445 speedup
 ANC optimizer:
 * wall-time:     0 d,  0 h,  0 min,  1.352 sec
 *  cpu-time:     0 d,  0 h,  0 min,  6.270 sec
 * ratio c/w:     4.636 speedup

