34
 energy: -54.562478913660 gnorm: 0.106167353575 xtb: 6.5.1 (fef0646)
C           -6.55012486210000        0.07987052080000       -0.01820082520000
C           -5.55027667560000        1.01492642840000       -0.01411161850000
C           -4.22324785450000        0.57576490650000       -0.00402345370000
C           -3.14195440860000        1.47054872670000       -0.00136142340000
C           -1.82937950950000        1.00724756890000        0.00594404230000
C           -0.70333056980000        1.86019586990000        0.00663343590000
N            0.55568065240000        1.47822801300000        0.01116616380000
C            0.78500585950000        0.12934227730000        0.01499248210000
C            2.11058773090000       -0.32952823930000        0.01272473210000
C            3.18390520370000        0.52700429340000        0.00565322750000
C            4.53325142830000        0.11106100610000       -0.00102056490000
C            5.58368970480000        1.06052329890000       -0.00756080780000
C            6.88882202070000        0.64250084190000       -0.01357498560000
C            7.20781725400000       -0.72032328550000       -0.01353299860000
C            6.19397644170000       -1.65064050640000       -0.00732449290000
C            4.91810091370000       -1.21352418550000       -0.00134274580000
C           -0.26734374580000       -0.76567758730000        0.01745356010000
C           -1.58901672020000       -0.40296715200000        0.01251705130000
C           -2.66102483290000       -1.28947990480000        0.01144209720000
C           -3.98460331410000       -0.83413907140000        0.00219306380000
N           -4.99221913060000       -1.74123586330000       -0.00145376510000
C           -6.22491701450000       -1.25928013300000       -0.01158178470000
H           -7.58243501970000        0.38836492640000       -0.02735035440000
H           -5.77067071320000        2.06812015360000       -0.02062834610000
H           -3.33008803710000        2.52834538520000       -0.00602719910000
H           -0.87660289030000        2.92302121540000        0.00121609680000
H            2.28684007970000       -1.38976399030000        0.01397716740000
H            2.97882150680000        1.58206261590000        0.00329546400000
H            5.34392568630000        2.10949219280000       -0.00751845130000
H            7.68239139980000        1.37092306000000       -0.01816994650000
H            8.23720085890000       -1.03750637860000       -0.01853390090000
H            6.40560631110000       -2.70988914930000       -0.00770990790000
H           -2.47369963260000       -2.34654686120000        0.01608734340000
H           -7.01723398800000       -1.99161742370000       -0.01496562450000
34
 energy: -54.568908621607 gnorm: 0.046979658435 xtb: 6.5.1 (fef0646)
C           -6.56296252583938        0.08730761005556       -0.01846042243453
C           -5.56480342146924        1.02408480869549       -0.01471025542768
C           -4.22725885985776        0.58736716874267       -0.00431662489717
C           -3.15213758631498        1.47858592499781       -0.00155273616176
C           -1.84565010466557        1.01370566516380        0.00587294166388
C           -0.71397634918865        1.86230358194122        0.00641800795059
N            0.52073673756752        1.46082177662746        0.01063047385666
C            0.77805533347806        0.11581213793155        0.01457767775007
C            2.13155125188090       -0.32326141555550        0.01254418546388
C            3.17887005867769        0.53254973365334        0.00545286675425
C            4.54079274737776        0.11069591112309       -0.00069578994244
C            5.59362015082996        1.05240098439980       -0.00736291599540
C            6.90444544046307        0.63632916982047       -0.01354477184110
C            7.22706753842837       -0.71780457911173       -0.01369400815000
C            6.20701580632884       -1.65976094222358       -0.00747252002927
C            4.92703851750080       -1.21114655982470       -0.00122577859627
C           -0.26329888810625       -0.77397102448150        0.01728673367586
C           -1.59664169216357       -0.40681391611317        0.01248900576549
C           -2.67193199024561       -1.29313221695610        0.01129013559407
C           -3.98689114037466       -0.82773699716965        0.00212439935204
N           -4.99727243742359       -1.72905538820746       -0.00139013276585
C           -6.22273095842691       -1.26887565330336       -0.01138495675312
H           -7.59932725433268        0.38749188270485       -0.02704650902414
H           -5.78458644104133        2.08087525094186       -0.02024846414333
H           -3.34181221774931        2.54098614019512       -0.00621963709534
H           -0.86911432667251        2.93339936381124        0.00218789049838
H            2.31497029570361       -1.38669408971842        0.01456921752585
H            2.96994354707279        1.59145671751549        0.00364825909571
H            5.34697936438602        2.10332819364764       -0.00747827431413
H            7.69788351639447        1.36836337920057       -0.01838657377352
H            8.25844543601156       -1.03385180741081       -0.01863620417131
H            6.42459061188547       -2.71861324207916       -0.00754993157788
H           -2.48929632235783       -2.35469245218458        0.01607647333280
H           -7.00485970455706       -2.01703154732935       -0.01448903038528
34
 energy: -54.570777409664 gnorm: 0.009057096019 xtb: 6.5.1 (fef0646)
C           -6.58139694438028        0.09202229250028       -0.01846604633967
C           -5.58730604967183        1.02697806712560       -0.01485204255365
C           -4.23856432639591        0.59846165233628       -0.00460703597474
C           -3.16705946943730        1.48597665548941       -0.00183432162006
C           -1.86330811144643        1.01919849965307        0.00582199916676
C           -0.71920737805905        1.85915233755695        0.00658019743487
N            0.49643241232869        1.43709318653094        0.01020336761959
C            0.77352108281131        0.09577822997706        0.01406557356591
C            2.15151460552988       -0.31949389354355        0.01244340444382
C            3.18070950099765        0.53874710745206        0.00549616604318
C            4.55547710363300        0.11286734028973       -0.00032119132645
C            5.60813213140351        1.04763858407109       -0.00715080899737
C            6.92285472122857        0.63146627218658       -0.01356636558917
C            7.24584588658363       -0.71572656422855       -0.01370971098079
C            6.22211928645718       -1.66526203525440       -0.00723238613853
C            4.94340562635273       -1.20678303177068       -0.00086091101847
C           -0.26508620336334       -0.78190982115661        0.01677535082807
C           -1.60557726263154       -0.40527009901305        0.01221583515691
C           -2.68342154371438       -1.28885557872029        0.01099291459032
C           -3.99226338289035       -0.81719754962100        0.00195605765272
N           -5.00644570944586       -1.71471364624143       -0.00129945988365
C           -6.22634900948078       -1.27574736746730       -0.01119218392677
H           -7.62130328456417        0.38096835409875       -0.02675514985735
H           -5.80612542008551        2.08599825544433       -0.02004015727994
H           -3.35657834134147        2.55157474148343       -0.00657690083517
H           -0.85503723921243        2.93618139060879        0.00318659517787
H            2.33642255271026       -1.38527125057149        0.01489069739237
H            2.97486114619742        1.60074538415215        0.00338508181730
H            5.35778492989629        2.09972970898826       -0.00730588800102
H            7.71545267066380        1.36653676560063       -0.01863328665842
H            8.27745204119257       -1.03490678943429       -0.01881017846473
H            6.44643251571830       -2.72191104640179       -0.00745937793063
H           -2.50647603757302       -2.35318066009521        0.01581819202034
H           -6.99945836681116       -2.03546192252574       -0.01385529873341
34
 energy: -54.570950988627 gnorm: 0.005252594917 xtb: 6.5.1 (fef0646)
C           -6.59109154669430        0.09213407738751       -0.01825494000439
C           -5.59851111850045        1.02626355073527       -0.01480424494589
C           -4.24637911323396        0.60214895039491       -0.00472505035033
C           -3.17409413681530        1.48908611945919       -0.00197682979034
C           -1.86961388228476        1.02122091991463        0.00568666469988
C           -0.71947389145006        1.85659230273008        0.00663188254105
N            0.49396623580013        1.42770840840754        0.01002485015811
C            0.77349530866192        0.08679271562278        0.01372812379149
C            2.15640177645007       -0.32119798087214        0.01223624149516
C            3.18514428648268        0.53925764383788        0.00544952036022
C            4.56359469820340        0.11394930246682       -0.00014494938632
C            5.61568210147913        1.04804518216289       -0.00698929091717
C            6.93141141040627        0.63158919920425       -0.01349172364632
C            7.25416802028711       -0.71483182887054       -0.01364730151404
C            6.23009929359770       -1.66534440951290       -0.00701448125097
C            4.95283576938515       -1.20577969003380       -0.00059316764220
C           -0.26965525716404       -0.78496393384095        0.01632411551470
C           -1.60991720333729       -0.40197757657491        0.01186842312762
C           -2.68875527480976       -1.28421662766731        0.01068821183301
C           -3.99702530849105       -0.81207938164130        0.00184640268249
N           -5.01151608112899       -1.71102319948668       -0.00122603915063
C           -6.23203679327403       -1.27734605741515       -0.01094151875765
H           -7.63212525276356        0.37642909420314       -0.02639114971466
H           -5.81723412968577        2.08557056140066       -0.01993253830842
H           -3.36241557786274        2.55506581447357       -0.00676578024249
H           -0.84881075179230        2.93411095473676        0.00363034068157
H            2.34058658859373       -1.38712264869883        0.01487858032243
H            2.98335467825180        1.60179895698867        0.00314009684097
H            5.36679949428276        2.10041221196412       -0.00716940651912
H            7.72328956793035        1.36751335710977       -0.01868889592340
H            8.28540917785564       -1.03610106614099       -0.01885738210746
H            6.45784255607200       -2.72082528776657       -0.00716857725874
H           -2.51477144765823       -2.34886764344466        0.01542084311209
H           -7.00320006359325       -2.03858842173366       -0.01346829893025
34
 energy: -54.570999357720 gnorm: 0.002211342963 xtb: 6.5.1 (fef0646)
C           -6.59723168860254        0.09186381382175       -0.01787482195080
C           -5.60570009558845        1.02588299453524       -0.01464545180520
C           -4.25192530874590        0.60468219380567       -0.00481354677715
C           -3.17854670109026        1.49131669468930       -0.00214663268746
C           -1.87333044729769        1.02251976990245        0.00542631999343
C           -0.71944203619751        1.85439216886343        0.00658120549932
N            0.49343242075418        1.42169765196628        0.00983754137270
C            0.77392502858738        0.08068992924057        0.01327344792480
C            2.15813596785534       -0.32322669278945        0.01193256316904
C            3.18820398927700        0.53740987751663        0.00535733436230
C            4.56850581345349        0.11360470582023        0.00000323298547
C            5.61985513671876        1.04839288557269       -0.00681867721693
C            6.93648188726461        0.63263399028453       -0.01336500033268
C            7.26002102283353       -0.71348199868136       -0.01348224232710
C            6.23637306713374       -1.66461631969924       -0.00667062490401
C            4.95969638285141       -1.20626792906190       -0.00027010524934
C           -0.27385623853905       -0.78697136669814        0.01569541402469
C           -1.61274120773674       -0.39888574968641        0.01136368041697
C           -2.69246781365982       -1.28057815668203        0.01023819295048
C           -4.00085929128214       -0.80829301382468        0.00169531804304
N           -5.01498825424679       -1.70936258667589       -0.00115574256847
C           -6.23634581779106       -1.27772644753590       -0.01060487832015
H           -7.63908258554070        0.37264631116045       -0.02579332588806
H           -5.82476815236790        2.08521887052500       -0.01977203453789
H           -3.36550874452381        2.55730384830350       -0.00691067045337
H           -0.84416863757727        2.93168566135898        0.00395968564318
H            2.34211342095654       -1.38901452909568        0.01466608584981
H            2.99046054945839        1.60020586552285        0.00288209845147
H            5.37330253406546        2.10106219946154       -0.00700372182946
H            7.72733861436093        1.36954273796224       -0.01863669248138
H            8.29110247979485       -1.03565624395919       -0.01880365891855
H            6.46789772127869       -2.71910131065813       -0.00673685144445
H           -2.52135536303336       -2.34538026827231        0.01480868169522
H           -7.00707351962329       -2.03876598749301       -0.01291339188944
34
 energy: -54.571004927647 gnorm: 0.000963210888 xtb: 6.5.1 (fef0646)
C           -6.59780931016141        0.09202451153526       -0.01756078486121
C           -5.60655833676958        1.02635515143416       -0.01449667919299
C           -4.25279069712598        0.60540774133277       -0.00485355849816
C           -3.17911037705764        1.49186894243089       -0.00225283845609
C           -1.87385350615795        1.02269998141523        0.00520944144812
C           -0.71945847333760        1.85368465413807        0.00647134755475
N            0.49324084296013        1.42032326490896        0.00970527994484
C            0.77396592157969        0.07918722056353        0.01296470762185
C            2.15762483670252       -0.32435069927685        0.01170418457604
C            3.18843666582558        0.53552994569226        0.00526610098376
C            4.56884011318393        0.11252094499352        0.00006490607351
C            5.61956768867247        1.04808696935781       -0.00672598681080
C            6.93666069847728        0.63346893250511       -0.01324513871387
C            7.26139259188852       -0.71238404378856       -0.01331815032560
C            6.23832410118631       -1.66409534058816       -0.00643480334939
C            4.96125569602055       -1.20721938151061       -0.00009077382765
C           -0.27502576484029       -0.78756270328403        0.01524824117005
C           -1.61320779818757       -0.39818030655024        0.01099224128470
C           -2.69325657276267       -1.27993323139117        0.00989553371794
C           -4.00168133617630       -0.80738197648735        0.00156801786931
N           -5.01551449938764       -1.70920322846558       -0.00112724799229
C           -6.23691691659205       -1.27725346546281       -0.01034625500074
H           -7.63988563982412        0.37191147096848       -0.02531470934915
H           -5.82600031728855        2.08562426636042       -0.01960405578717
H           -3.36552506512365        2.55784109830040       -0.00695055110517
H           -0.84271471417402        2.93094734682432        0.00403749615929
H            2.34193400860272       -1.39012537378857        0.01442737670297
H            2.99201025611230        1.59851044761187        0.00276746543017
H            5.37370482531214        2.10086348526214       -0.00693390955169
H            7.72676177049761        1.37115052648163       -0.01853627084531
H            8.29262629836492       -1.03401822877699       -0.01865780543584
H            6.47169881211223       -2.71822037870147       -0.00640518985801
H           -2.52327312267726       -2.34481466736484        0.01435406030870
H           -7.00800854665464       -2.03784030717960       -0.01251896108486
34
 energy: -54.571007550977 gnorm: 0.000789035900 xtb: 6.5.1 (fef0646)
C           -6.59755958179335        0.09290477018851       -0.01688395017826
C           -5.60650207540292        1.02768916798392       -0.01414697736890
C           -4.25305256257490        0.60633434838173       -0.00492383746954
C           -3.17905471584223        1.49239582786605       -0.00245438982306
C           -1.87400295179278        1.02262156452050        0.00475644302894
C           -0.71928243496912        1.85266361431174        0.00619909061071
N            0.49300240373161        1.41847541949028        0.00938592038540
C            0.77383357066339        0.07716207761661        0.01232587335071
C            2.15646149311391       -0.32669557364708        0.01122049523190
C            3.18805985168263        0.53210356957447        0.00506512489118
C            4.56837255408374        0.11023616891102        0.00015322422441
C            5.61772568517824        1.04730178142216       -0.00657316912774
C            6.93563083692752        0.63516211900460       -0.01297573684167
C            7.26285143678843       -0.71009168227569       -0.01291477984220
C            6.24104567041349       -1.66319940278042       -0.00594108476348
C            4.96298021389424       -1.20902515873350        0.00022678181332
C           -0.27616175459889       -0.78870156562514        0.01432354392975
C           -1.61356113886292       -0.39800082817008        0.01022259385058
C           -2.69404881690518       -1.27971839953644        0.00916842960065
C           -4.00230903585786       -0.80651118698587        0.00128608143729
N           -5.01585058990561       -1.70888576343968       -0.00110626287281
C           -6.23705718513032       -1.27603256418295       -0.00982848593922
H           -7.63981793245261        0.37214685897876       -0.02426897314604
H           -5.82646395299375        2.08683701730159       -0.01917414712430
H           -3.36473558705223        2.55843205687276       -0.00697739394595
H           -0.84058525271778        2.93011569897467        0.00405924434789
H            2.34143547531637       -1.39252095840558        0.01387398140682
H            2.99272327200929        1.59540541936770        0.00258017698204
H            5.37179331108667        2.10007413400719       -0.00685819483552
H            7.72424324279437        1.37442348351476       -0.01827999294212
H            8.29452904529432       -1.03012105149119       -0.01821787346960
H            6.47715210466267       -2.71681287833259       -0.00572073769241
H           -2.52547458707417       -2.34474440345067        0.01339913454440
H           -7.00886587851427       -2.03600011173213       -0.01169742145313
