34
 energy: -54.571007569110 gnorm: 0.000787886146 xtb: 6.5.1 (fef0646)
C           -6.59755958179335        0.09290477018851       -0.01688395017826
C           -5.60650207540292        1.02768916798392       -0.01414697736890
C           -4.25305256257490        0.60633434838173       -0.00492383746954
C           -3.17905471584223        1.49239582786605       -0.00245438982306
C           -1.87400295179278        1.02262156452050        0.00475644302894
C           -0.71928243496912        1.85266361431174        0.00619909061071
N            0.49300240373161        1.41847541949028        0.00938592038540
C            0.77383357066339        0.07716207761661        0.01232587335071
C            2.15646149311391       -0.32669557364708        0.01122049523190
C            3.18805985168263        0.53210356957447        0.00506512489118
C            4.56837255408374        0.11023616891102        0.00015322422441
C            5.61772568517824        1.04730178142216       -0.00657316912774
C            6.93563083692752        0.63516211900460       -0.01297573684167
C            7.26285143678843       -0.71009168227569       -0.01291477984220
C            6.24104567041349       -1.66319940278042       -0.00594108476348
C            4.96298021389424       -1.20902515873350        0.00022678181332
C           -0.27616175459889       -0.78870156562514        0.01432354392975
C           -1.61356113886292       -0.39800082817008        0.01022259385058
C           -2.69404881690518       -1.27971839953644        0.00916842960065
C           -4.00230903585786       -0.80651118698587        0.00128608143729
N           -5.01585058990561       -1.70888576343968       -0.00110626287281
C           -6.23705718513032       -1.27603256418295       -0.00982848593922
H           -7.63981793245261        0.37214685897876       -0.02426897314604
H           -5.82646395299375        2.08683701730159       -0.01917414712430
H           -3.36473558705223        2.55843205687276       -0.00697739394595
H           -0.84058525271778        2.93011569897467        0.00405924434789
H            2.34143547531637       -1.39252095840558        0.01387398140682
H            2.99272327200929        1.59540541936770        0.00258017698204
H            5.37179331108667        2.10007413400719       -0.00685819483552
H            7.72424324279437        1.37442348351476       -0.01827999294212
H            8.29452904529432       -1.03012105149119       -0.01821787346960
H            6.47715210466267       -2.71681287833259       -0.00572073769241
H           -2.52547458707417       -2.34474440345067        0.01339913454440
H           -7.00886587851427       -2.03600011173213       -0.01169742145313
