      -----------------------------------------------------------      
     |                   =====================                   |     
     |                           x T B                           |     
     |                   =====================                   |     
     |                         S. Grimme                         |     
     |          Mulliken Center for Theoretical Chemistry        |     
     |                    University of Bonn                     |     
      -----------------------------------------------------------      

   * xtb version 6.7.1 (edcfbbe) compiled by 'albert@albert-system' on 2024-07-22

   xtb is free software: you can redistribute it and/or modify it under
   the terms of the GNU Lesser General Public License as published by
   the Free Software Foundation, either version 3 of the License, or
   (at your option) any later version.
   
   xtb is distributed in the hope that it will be useful,
   but WITHOUT ANY WARRANTY; without even the implied warranty of
   MERCHANTABILITY or FITNESS FOR A PARTICULAR PURPOSE.  See the
   GNU Lesser General Public License for more details.
   
   Cite this work as:
   * C. Bannwarth, E. Caldeweyher, S. Ehlert, A. Hansen, P. Pracht,
     J. Seibert, S. Spicher, S. Grimme, WIREs Comput. Mol. Sci., 2020, 11,
     e01493. DOI: 10.1002/wcms.1493
   
   for GFN2-xTB:
   * C. Bannwarth, S. Ehlert and S. Grimme., J. Chem. Theory Comput., 2019,
     15, 1652-1671. DOI: 10.1021/acs.jctc.8b01176
   for GFN1-xTB:
   * S. Grimme, C. Bannwarth, P. Shushkov, J. Chem. Theory Comput., 2017,
     13, 1989-2009. DOI: 10.1021/acs.jctc.7b00118
   for GFN0-xTB:
   * P. Pracht, E. Caldeweyher, S. Ehlert, S. Grimme, ChemRxiv, 2019, preprint.
     DOI: 10.26434/chemrxiv.8326202.v1
   for GFN-FF:
   * S. Spicher and S. Grimme, Angew. Chem. Int. Ed., 2020, 59, 15665-15673.
     DOI: 10.1002/anie.202004239
   
   for ALPB and GBSA implicit solvation:
   * S. Ehlert, M. Stahn, S. Spicher, S. Grimme, J. Chem. Theory Comput.,
     2021, 17, 4250-4261. DOI: 10.1021/acs.jctc.1c00471
   
   for ddCOSMO and CPCM-X implicit solvation:
   * M. Stahn, S. Ehlert, S. Grimme, J. Phys. Chem. A,
     2023, XX, XXXX-XXXX. DOI: 10.1021/acs.jpca.3c04382
   
   for DFT-D4:
   * E. Caldeweyher, C. Bannwarth and S. Grimme, J. Chem. Phys., 2017,
     147, 034112. DOI: 10.1063/1.4993215
   * E. Caldeweyher, S. Ehlert, A. Hansen, H. Neugebauer, S. Spicher,
     C. Bannwarth and S. Grimme, J. Chem. Phys., 2019, 150, 154122.
     DOI: 10.1063/1.5090222
   * E. Caldeweyher, J.-M. Mewes, S. Ehlert and S. Grimme, Phys. Chem. Chem. Phys.
     2020, 22, 8499-8512. DOI: 10.1039/D0CP00502A
   
   for sTDA-xTB:
   * S. Grimme and C. Bannwarth, J. Chem. Phys., 2016, 145, 054103.
     DOI: 10.1063/1.4959605
   
   in the mass-spec context:
   * V. Asgeirsson, C. Bauer and S. Grimme, Chem. Sci., 2017, 8, 4879.
     DOI: 10.1039/c7sc00601b
   * J. Koopman and S. Grimme, ACS Omega 2019, 4, 12, 15120-15133.
     DOI: 10.1021/acsomega.9b02011
   
   for metadynamics refer to:
   * S. Grimme, J. Chem. Theory Comput., 2019, 155, 2847-2862
     DOI: 10.1021/acs.jctc.9b00143
   
   for SPH calculations refer to:
   * S. Spicher and S. Grimme, J. Chem. Theory Comput., 2021, 17, 1701-1714
     DOI: 10.1021/acs.jctc.0c01306
   
   for ONIOM refer to:
   * C. Plett, A. Katbashev, S. Ehlert, S. Grimme, M. Bursch,
     Phys. Chem. Chem. Phys., 2023, 25, 17860-17868. DOI: 10.1039/D3CP02178E
   
   for DIPRO refer to:
   * J. Kohn, N. Gildemeister, S. Grimme, D. Fazzi, A. Hansen,
     J. Chem. Phys., 2023, just accepted.
   
   for PTB refer to:
   * S. Grimme, M. Mueller, A. Hansen, J. Chem. Phys., 2023, 158, 124111.
     DOI: 10.1063/5.0137838
   
   with help from (in alphabetical order)
   P. Atkinson, C. Bannwarth, F. Bohle, G. Brandenburg, E. Caldeweyher
   M. Checinski, S. Dohm, S. Ehlert, S. Ehrlich, I. Gerasimov, C. Hölzer
   A. Katbashev, J. Kohn, J. Koopman, C. Lavigne, S. Lehtola, F. März, M. Müller,
   F. Musil, H. Neugebauer, J. Pisarek, C. Plett, P. Pracht, F. Pultar,
   J. Seibert, P. Shushkov, S. Spicher, M. Stahn, M. Steiner, T. Strunk,
   J. Stückrath, T. Rose, and J. Unsleber
   
 * started run on 2024/08/07 at 21:17:08.419     
   ID    Z sym.   atoms
    1    7 N      1
    2    6 C      2-4, 6
    3    8 O      5, 7
    4    1 H      8-12

           -------------------------------------------------
          |                Calculation Setup                |
           -------------------------------------------------

          program call               : xtb crest_best.xyz --gfn 2 --alpb toluene --opt vtight -c 0 --iterations 40
          coordinate file            : crest_best.xyz
          omp threads                :                     8


           -------------------------------------------------
          |                 G F N 2 - x T B                 |
           -------------------------------------------------

        Reference                      10.1021/acs.jctc.8b01176
      * Hamiltonian:
        H0-scaling (s, p, d)           1.850000    2.230000    2.230000
        zeta-weighting                 0.500000
      * Dispersion:
        s8                             2.700000
        a1                             0.520000
        a2                             5.000000
        s9                             5.000000
      * Repulsion:
        kExp                           1.500000    1.000000
        rExp                           1.000000
      * Coulomb:
        alpha                          2.000000
        third order                    shell-resolved
        anisotropic                    true
        a3                             3.000000
        a5                             4.000000
        cn-shift                       1.200000
        cn-exp                         4.000000
        max-rad                        5.000000

      * Solvation model:               ALPB
        Solvent                        toluene
        Parameter file                 internal GFN2-xTB/ALPB
        Dielectric constant                7.0000E+00
        Reference state                gsolv [1 M gas/solution]
        Free energy shift                  2.2081E-03 Eh       1.3856E+00 kcal/mol
        Temperature                        2.9815E+02 K
        Density                            8.6700E-01 kg/L
        Solvent mass                       7.8110E+01 g/mol
        Interaction kernel             P16
        Born radius scaling (c1)           1.7172E+00
        Born radii integrator          GBOBC
        Born offset                        0.0000E+00 a0       0.0000E+00 AA
        H-bond correction              false
        Ion screening                  false
        Surface tension                    1.0000E-05 Eh       1.5569E+01 dyn/cm
        Grid points                               230 per atom

          ...................................................
          :                      SETUP                      :
          :.................................................:
          :  # basis functions                  33          :
          :  # atomic orbitals                  33          :
          :  # shells                           19          :
          :  # electrons                        38          :
          :  max. iterations                    40          :
          :  Hamiltonian                  GFN2-xTB          :
          :  restarted?                      false          :
          :  GBSA solvation                   true          :
          :  PC potential                    false          :
          :  electronic temp.          300.0000000     K    :
          :  accuracy                    1.0000000          :
          :  -> integral cutoff          0.2500000E+02      :
          :  -> integral neglect         0.1000000E-07      :
          :  -> SCF convergence          0.1000000E-05 Eh   :
          :  -> wf. convergence          0.1000000E-03 e    :
          :  Broyden damping             0.4000000          :
          :  net charge                          0          :
          :  unpaired electrons                  0          :
          ...................................................

 iter      E             dE          RMSdq      gap      omega  full diag
   1    -22.2878827 -0.222879E+02  0.517E+00    3.39       0.0  T
   2    -22.3215972 -0.337145E-01  0.265E+00    2.64       1.0  T
   3    -22.3217207 -0.123535E-03  0.149E+00    2.78       1.0  T
   4    -22.3272138 -0.549311E-02  0.188E-01    2.44       1.0  T
   5    -22.3273194 -0.105567E-03  0.845E-02    2.44       1.0  T
   6    -22.3273484 -0.290087E-04  0.470E-02    2.47       1.0  T
   7    -22.3273519 -0.350619E-05  0.105E-02    2.47       2.7  T
   8    -22.3273522 -0.245371E-06  0.416E-03    2.47       6.9  T
   9    -22.3273522 -0.436505E-07  0.140E-03    2.47      20.6  T
  10    -22.3273522 -0.373442E-08  0.409E-04    2.47      70.6  T
  11    -22.3273522 -0.543785E-09  0.123E-04    2.47     234.6  T

   *** convergence criteria satisfied after 11 iterations ***

         #    Occupation            Energy/Eh            Energy/eV
      -------------------------------------------------------------
         1        2.0000           -0.7540458             -20.5186
       ...           ...                  ...                  ...
        13        2.0000           -0.5268213             -14.3355
        14        2.0000           -0.5078690             -13.8198
        15        2.0000           -0.5041927             -13.7198
        16        2.0000           -0.4838055             -13.1650
        17        2.0000           -0.4491697             -12.2225
        18        2.0000           -0.4270494             -11.6206
        19        2.0000           -0.3897321             -10.6052 (HOMO)
        20                         -0.2990810              -8.1384 (LUMO)
        21                         -0.2416848              -6.5766
        22                         -0.0640513              -1.7429
        23                         -0.0088016              -0.2395
        24                          0.0198320               0.5397
       ...                                ...                  ...
        33                          0.6015395              16.3687
      -------------------------------------------------------------
                  HL-Gap            0.0906511 Eh            2.4667 eV
             Fermi-level           -0.3444066 Eh           -9.3718 eV

 SCC (total)                   0 d,  0 h,  0 min,  0.013 sec
 SCC setup                      ...        0 min,  0.000 sec (  3.095%)
 Dispersion                     ...        0 min,  0.000 sec (  1.848%)
 classical contributions        ...        0 min,  0.000 sec (  0.791%)
 integral evaluation            ...        0 min,  0.001 sec (  6.062%)
 iterations                     ...        0 min,  0.009 sec ( 70.285%)
 molecular gradient             ...        0 min,  0.002 sec ( 16.224%)
 printout                       ...        0 min,  0.000 sec (  1.384%)

         :::::::::::::::::::::::::::::::::::::::::::::::::::::
         ::                     SUMMARY                     ::
         :::::::::::::::::::::::::::::::::::::::::::::::::::::
         :: total energy             -22.098257970945 Eh    ::
         :: total w/o Gsasa/hb       -22.090292196566 Eh    ::
         :: gradient norm              0.085346412373 Eh/a0 ::
         :: HOMO-LUMO gap              2.466742619443 eV    ::
         ::.................................................::
         :: SCC energy               -22.327346459131 Eh    ::
         :: -> isotropic ES            0.050783295296 Eh    ::
         :: -> anisotropic ES          0.002891352400 Eh    ::
         :: -> anisotropic XC          0.009476440370 Eh    ::
         :: -> dispersion             -0.007072069940 Eh    ::
         :: -> Gsolv                  -0.010141384874 Eh    ::
         ::    -> Gelec               -0.002175610495 Eh    ::
         ::    -> Gsasa               -0.010173917518 Eh    ::
         ::    -> Ghb                  0.000000000000 Eh    ::
         ::    -> Gshift               0.002208143139 Eh    ::
         :: repulsion energy           0.229088488186 Eh    ::
         :: add. restraining           0.000000000000 Eh    ::
         :: total charge               0.000000000000 e     ::
         :::::::::::::::::::::::::::::::::::::::::::::::::::::

      ----------------------------------------------------------- 
     |                   =====================                   |
     |                        A N C O P T                        |
     |                   =====================                   |
     |               Approximate Normal Coordinate               |
     |                Rational Function Optimizer                |
      ----------------------------------------------------------- 
      ----------------------------------------------------------- 
     |                   =====================                   |
     |                        A N C O P T                        |
     |                   =====================                   |
     |               Approximate Normal Coordinate               |
     |                Rational Function Optimizer                |
      ----------------------------------------------------------- 

          ...................................................
          :                      SETUP                      :
          :.................................................:
          :   optimization level         verytight          :
          :   max. optcycles                   240          :
          :   ANC micro-cycles                  20          :
          :   degrees of freedom                30          :
          :.................................................:
          :   RF solver                   davidson          :
          :   write xtbopt.log                true          :
          :   linear?                        false          :
          :   energy convergence         0.1000000E-06 Eh   :
          :   grad. convergence          0.2000000E-03 Eh/α :
          :   maxmium RF displ.          1.0000000          :
          :   Hlow (freq-cutoff)         0.1000000E-01      :
          :   Hmax (freq-cutoff)         5.0000000          :
          :   S6 in model hess.         20.0000000          :
          ...................................................

generating ANC from exact Hessian ...
Using Lindh-Hessian (1995)
 Shifting diagonal of input Hessian by   4.045199323705560E-003
 Lowest  eigenvalues of input Hessian
    0.000000    0.000000    0.000000    0.000000    0.000000    0.000000
    0.010000    0.015591    0.019294    0.032875    0.041869    0.051373
    0.055840    0.071600    0.088165    0.094646    0.098727    0.118448
 Highest eigenvalues
    1.220245    1.286893    1.439225    1.569401    2.221953    2.237393
 

........................................................................
.............................. CYCLE    1 ..............................
........................................................................

 iter      E             dE          RMSdq      gap      omega  full diag
   1    -22.3273522 -0.223274E+02  0.461E-05    2.47       0.0  T
   2    -22.3273522 -0.948930E-11  0.214E-05    2.47    1350.2  T
   3    -22.3273522 -0.255795E-11  0.126E-05    2.47    2297.1  T
     SCC iter.                  ...        0 min,  0.002 sec
     gradient                   ...        0 min,  0.002 sec
 * total energy  :   -22.0982580 Eh     change       -0.2913225E-10 Eh
   gradient norm :     0.0853469 Eh/α   predicted     0.0000000E+00 (-100.00%)
   displ. norm   :     0.2568240 α      lambda       -0.1122421E-01
   maximum displ.:     0.1339821 α      in ANC's #3, #5, #7, ...

........................................................................
.............................. CYCLE    2 ..............................
........................................................................

 iter      E             dE          RMSdq      gap      omega  full diag
   1    -22.3377859 -0.223378E+02  0.362E-01    2.46       0.0  T
   2    -22.3378646 -0.786800E-04  0.213E-01    2.52       1.0  T
   3    -22.3378598  0.481098E-05  0.564E-02    2.55       1.0  T
   4    -22.3378742 -0.144931E-04  0.128E-02    2.55       2.2  T
   5    -22.3378749 -0.640630E-06  0.726E-03    2.55       4.0  T
   6    -22.3378750 -0.126395E-06  0.289E-03    2.54      10.0  T
   7    -22.3378750 -0.108782E-07  0.106E-03    2.55      27.3  T
   8    -22.3378750 -0.345518E-08  0.324E-04    2.55      89.0  T
   9    -22.3378750 -0.892015E-10  0.136E-04    2.55     211.7  T
     SCC iter.                  ...        0 min,  0.015 sec
     gradient                   ...        0 min,  0.001 sec
 * total energy  :   -22.1061588 Eh     change       -0.7900852E-02 Eh
   gradient norm :     0.0345024 Eh/α   predicted    -0.5982273E-02 ( -24.28%)
   displ. norm   :     0.2954357 α      lambda       -0.4849447E-02
   maximum displ.:     0.1715064 α      in ANC's #3, #5, #2, ...

........................................................................
.............................. CYCLE    3 ..............................
........................................................................

 iter      E             dE          RMSdq      gap      omega  full diag
   1    -22.3397785 -0.223398E+02  0.380E-01    2.64       0.0  T
   2    -22.3397928 -0.142549E-04  0.223E-01    2.64       1.0  T
   3    -22.3397955 -0.270041E-05  0.182E-02    2.65       1.6  T
   4    -22.3397971 -0.160828E-05  0.889E-03    2.65       3.2  T
   5    -22.3397971 -0.645458E-07  0.380E-03    2.65       7.6  T
   6    -22.3397972 -0.198311E-07  0.151E-03    2.65      19.1  T
   7    -22.3397972 -0.603614E-08  0.629E-04    2.65      45.9  T
   8    -22.3397972 -0.568917E-09  0.262E-04    2.65     110.2  T
     SCC iter.                  ...        0 min,  0.006 sec
     gradient                   ...        0 min,  0.001 sec
 * total energy  :   -22.1087705 Eh     change       -0.2611643E-02 Eh
   gradient norm :     0.0178581 Eh/α   predicted    -0.2636362E-02 (   0.95%)
   displ. norm   :     0.1687785 α      lambda       -0.9684258E-03
   maximum displ.:     0.1231891 α      in ANC's #3, #1, #5, ...

........................................................................
.............................. CYCLE    4 ..............................
........................................................................

 iter      E             dE          RMSdq      gap      omega  full diag
   1    -22.3395899 -0.223396E+02  0.239E-01    2.76       0.0  T
   2    -22.3396017 -0.118460E-04  0.143E-01    2.75       1.0  T
   3    -22.3395963  0.547045E-05  0.335E-02    2.74       1.0  T
   4    -22.3396044 -0.817596E-05  0.727E-03    2.74       4.0  T
   5    -22.3396046 -0.141180E-06  0.384E-03    2.74       7.5  T
   6    -22.3396046 -0.247776E-07  0.126E-03    2.75      22.9  T
   7    -22.3396046 -0.203000E-08  0.328E-04    2.75      87.9  T
   8    -22.3396046 -0.300719E-09  0.145E-04    2.75     198.5  T
     SCC iter.                  ...        0 min,  0.007 sec
     gradient                   ...        0 min,  0.004 sec
 * total energy  :   -22.1089537 Eh     change       -0.1831872E-03 Eh
   gradient norm :     0.0139581 Eh/α   predicted    -0.4980069E-03 ( 171.86%)
   displ. norm   :     0.0547588 α      lambda       -0.4315111E-03
   maximum displ.:     0.0295188 α      in ANC's #2, #1, #4, ...

........................................................................
.............................. CYCLE    5 ..............................
........................................................................

 iter      E             dE          RMSdq      gap      omega  full diag
   1    -22.3406013 -0.223406E+02  0.100E-01    2.74       0.0  T
   2    -22.3406036 -0.226905E-05  0.604E-02    2.74       1.0  T
   3    -22.3406026  0.959845E-06  0.143E-02    2.74       2.0  T
   4    -22.3406039 -0.130141E-05  0.329E-03    2.74       8.8  T
   5    -22.3406040 -0.576836E-07  0.137E-03    2.74      21.1  T
   6    -22.3406040 -0.160052E-08  0.417E-04    2.74      69.2  T
   7    -22.3406040 -0.386560E-09  0.182E-04    2.74     158.3  T
     SCC iter.                  ...        0 min,  0.008 sec
     gradient                   ...        0 min,  0.002 sec
 * total energy  :   -22.1092102 Eh     change       -0.2565852E-03 Eh
   gradient norm :     0.0054989 Eh/α   predicted    -0.2164030E-03 ( -15.66%)
   displ. norm   :     0.0420339 α      lambda       -0.7470599E-04
   maximum displ.:     0.0384426 α      in ANC's #3, #12, #9, ...

........................................................................
.............................. CYCLE    6 ..............................
........................................................................

 iter      E             dE          RMSdq      gap      omega  full diag
   1    -22.3411114 -0.223411E+02  0.524E-02    2.74       0.0  T
   2    -22.3411132 -0.177529E-05  0.312E-02    2.75       1.0  T
   3    -22.3411128  0.391204E-06  0.115E-02    2.74       2.5  T
   4    -22.3411134 -0.597766E-06  0.235E-03    2.75      12.3  T
   5    -22.3411134 -0.391778E-07  0.582E-04    2.75      49.6  T
   6    -22.3411134 -0.467427E-09  0.249E-04    2.75     115.7  T
     SCC iter.                  ...        0 min,  0.004 sec
     gradient                   ...        0 min,  0.001 sec
 * total energy  :   -22.1092646 Eh     change       -0.5431412E-04 Eh
   gradient norm :     0.0027152 Eh/α   predicted    -0.3741809E-04 ( -31.11%)
   displ. norm   :     0.0701415 α      lambda       -0.5834753E-04
   maximum displ.:     0.0628299 α      in ANC's #3, #2, #1, ...

........................................................................
.............................. CYCLE    7 ..............................
........................................................................

 iter      E             dE          RMSdq      gap      omega  full diag
   1    -22.3415640 -0.223416E+02  0.102E-01    2.75       0.0  T
   2    -22.3415662 -0.216146E-05  0.603E-02    2.75       1.0  T
   3    -22.3415654  0.818483E-06  0.123E-02    2.75       2.3  T
   4    -22.3415665 -0.107203E-05  0.291E-03    2.75       9.9  T
   5    -22.3415665 -0.553740E-07  0.103E-03    2.75      28.0  T
   6    -22.3415665 -0.984674E-09  0.439E-04    2.75      65.8  T
   7    -22.3415665 -0.412019E-09  0.180E-04    2.75     160.1  T
     SCC iter.                  ...        0 min,  0.006 sec
     gradient                   ...        0 min,  0.002 sec
 * total energy  :   -22.1093053 Eh     change       -0.4078915E-04 Eh
   gradient norm :     0.0026438 Eh/α   predicted    -0.2931790E-04 ( -28.12%)
   displ. norm   :     0.0844228 α      lambda       -0.4220269E-04
   maximum displ.:     0.0666588 α      in ANC's #3, #2, #1, ...

........................................................................
.............................. CYCLE    8 ..............................
........................................................................

 iter      E             dE          RMSdq      gap      omega  full diag
   1    -22.3418007 -0.223418E+02  0.138E-01    2.75       0.0  T
   2    -22.3418019 -0.115120E-05  0.814E-02    2.76       1.0  T
   3    -22.3418018  0.697128E-07  0.622E-03    2.76       4.6  T
   4    -22.3418021 -0.258546E-06  0.265E-03    2.76      10.9  T
   5    -22.3418021 -0.320052E-07  0.124E-03    2.76      23.3  T
   6    -22.3418021 -0.148745E-08  0.394E-04    2.76      73.3  T
   7    -22.3418021 -0.332822E-09  0.165E-04    2.76     175.3  T
     SCC iter.                  ...        0 min,  0.003 sec
     gradient                   ...        0 min,  0.001 sec
 * total energy  :   -22.1093386 Eh     change       -0.3328225E-04 Eh
   gradient norm :     0.0035207 Eh/α   predicted    -0.2125234E-04 ( -36.15%)
   displ. norm   :     0.1635319 α      lambda       -0.7074312E-04
   maximum displ.:     0.1139063 α      in ANC's #3, #2, #1, ...

........................................................................
.............................. CYCLE    9 ..............................
........................................................................

 iter      E             dE          RMSdq      gap      omega  full diag
   1    -22.3416596 -0.223417E+02  0.282E-01    2.74       0.0  T
   2    -22.3416620 -0.237567E-05  0.167E-01    2.75       1.0  T
   3    -22.3416626 -0.623404E-06  0.617E-03    2.76       4.7  T
   4    -22.3416627 -0.795344E-07  0.365E-03    2.76       7.9  T
   5    -22.3416627 -0.129959E-07  0.182E-03    2.76      15.9  T
   6    -22.3416627 -0.856658E-08  0.601E-04    2.76      48.0  T
   7    -22.3416627 -0.747189E-09  0.259E-04    2.76     111.6  T
     SCC iter.                  ...        0 min,  0.002 sec
     gradient                   ...        0 min,  0.001 sec
 * total energy  :   -22.1093832 Eh     change       -0.4460557E-04 Eh
   gradient norm :     0.0055625 Eh/α   predicted    -0.3631824E-04 ( -18.58%)
   displ. norm   :     0.0862564 α      lambda       -0.5257075E-04
   maximum displ.:     0.0630709 α      in ANC's #2, #3, #1, ...

........................................................................
.............................. CYCLE   10 ..............................
........................................................................

 iter      E             dE          RMSdq      gap      omega  full diag
   1    -22.3422575 -0.223423E+02  0.155E-01    2.77       0.0  T
   2    -22.3422579 -0.410129E-06  0.917E-02    2.77       1.0  T
   3    -22.3422578  0.105621E-06  0.662E-03    2.77       4.4  T
   4    -22.3422582 -0.342454E-06  0.218E-03    2.77      13.2  T
   5    -22.3422582 -0.284453E-08  0.536E-04    2.77      53.8  T
   6    -22.3422582 -0.879854E-09  0.270E-04    2.77     106.8  T
     SCC iter.                  ...        0 min,  0.004 sec
     gradient                   ...        0 min,  0.001 sec
 * total energy  :   -22.1094249 Eh     change       -0.4163952E-04 Eh
   gradient norm :     0.0042845 Eh/α   predicted    -0.2648082E-04 ( -36.40%)
   displ. norm   :     0.1974806 α      lambda       -0.9863157E-04
   maximum displ.:     0.1436021 α      in ANC's #2, #3, #4, ...

........................................................................
.............................. CYCLE   11 ..............................
........................................................................

 iter      E             dE          RMSdq      gap      omega  full diag
   1    -22.3411206 -0.223411E+02  0.360E-01    2.74       0.0  T
   2    -22.3411245 -0.390229E-05  0.212E-01    2.74       1.0  T
   3    -22.3411236  0.931604E-06  0.169E-02    2.76       1.7  T
   4    -22.3411259 -0.224527E-05  0.514E-03    2.75       5.6  T
   5    -22.3411259 -0.483717E-07  0.275E-03    2.75      10.5  T
   6    -22.3411259 -0.135400E-07  0.101E-03    2.75      28.6  T
   7    -22.3411259 -0.167170E-08  0.299E-04    2.75      96.7  T
   8    -22.3411259 -0.196145E-09  0.134E-04    2.75     215.7  T
     SCC iter.                  ...        0 min,  0.004 sec
     gradient                   ...        0 min,  0.001 sec
 * total energy  :   -22.1094831 Eh     change       -0.5823991E-04 Eh
   gradient norm :     0.0073170 Eh/α   predicted    -0.5123999E-04 ( -12.02%)
   displ. norm   :     0.0915550 α      lambda       -0.1318739E-03
   maximum displ.:     0.0706310 α      in ANC's #2, #4, #19, ...

........................................................................
.............................. CYCLE   12 ..............................
........................................................................

 iter      E             dE          RMSdq      gap      omega  full diag
   1    -22.3425642 -0.223426E+02  0.144E-01    2.80       0.0  T
   2    -22.3425675 -0.332343E-05  0.853E-02    2.78       1.0  T
   3    -22.3425659  0.153960E-05  0.165E-02    2.78       1.7  T
   4    -22.3425680 -0.203464E-05  0.367E-03    2.78       7.9  T
   5    -22.3425681 -0.809680E-07  0.138E-03    2.78      20.9  T
   6    -22.3425681 -0.148275E-08  0.466E-04    2.78      61.9  T
   7    -22.3425681 -0.474117E-09  0.224E-04    2.78     128.8  T
     SCC iter.                  ...        0 min,  0.009 sec
     gradient                   ...        0 min,  0.008 sec
 * total energy  :   -22.1095189 Eh     change       -0.3574549E-04 Eh
   gradient norm :     0.0050740 Eh/α   predicted    -0.6648873E-04 (  86.01%)
   displ. norm   :     0.1631943 α      lambda       -0.9386036E-04
   maximum displ.:     0.1143005 α      in ANC's #2, #3, #4, ...

........................................................................
.............................. CYCLE   13 ..............................
........................................................................

 iter      E             dE          RMSdq      gap      omega  full diag
   1    -22.3407555 -0.223408E+02  0.304E-01    2.74       0.0  T
   2    -22.3407584 -0.285090E-05  0.179E-01    2.75       1.0  T
   3    -22.3407589 -0.528029E-06  0.775E-03    2.76       3.7  T
   4    -22.3407592 -0.284973E-06  0.381E-03    2.76       7.6  T
   5    -22.3407592 -0.158690E-07  0.170E-03    2.76      16.9  T
   6    -22.3407592 -0.285164E-08  0.660E-04    2.76      43.7  T
   7    -22.3407592 -0.137978E-08  0.224E-04    2.76     129.0  T
     SCC iter.                  ...        0 min,  0.007 sec
     gradient                   ...        0 min,  0.002 sec
 * total energy  :   -22.1095682 Eh     change       -0.4933089E-04 Eh
   gradient norm :     0.0079736 Eh/α   predicted    -0.4818221E-04 (  -2.33%)
   displ. norm   :     0.0417196 α      lambda       -0.7341924E-04
   maximum displ.:     0.0230728 α      in ANC's #2, #4, #3, ...

........................................................................
.............................. CYCLE   14 ..............................
........................................................................

 iter      E             dE          RMSdq      gap      omega  full diag
   1    -22.3416710 -0.223417E+02  0.431E-02    2.78       0.0  T
   2    -22.3416731 -0.212569E-05  0.253E-02    2.79       1.1  T
   3    -22.3416730  0.113983E-06  0.124E-02    2.78       2.3  T
   4    -22.3416735 -0.516760E-06  0.213E-03    2.78      13.6  T
   5    -22.3416735 -0.227325E-07  0.770E-04    2.78      37.5  T
   6    -22.3416735 -0.169374E-08  0.311E-04    2.78      92.7  T
     SCC iter.                  ...        0 min,  0.003 sec
     gradient                   ...        0 min,  0.001 sec
 * total energy  :   -22.1096151 Eh     change       -0.4691496E-04 Eh
   gradient norm :     0.0037784 Eh/α   predicted    -0.3677351E-04 ( -21.62%)
   displ. norm   :     0.1196820 α      lambda       -0.6301773E-04
   maximum displ.:     0.0757326 α      in ANC's #3, #2, #19, ...

........................................................................
.............................. CYCLE   15 ..............................
........................................................................

 iter      E             dE          RMSdq      gap      omega  full diag
   1    -22.3411001 -0.223411E+02  0.217E-01    2.77       0.0  T
   2    -22.3411016 -0.143992E-05  0.128E-01    2.78       1.0  T
   3    -22.3411010  0.511261E-06  0.108E-02    2.78       2.7  T
   4    -22.3411020 -0.987006E-06  0.314E-03    2.79       9.2  T
   5    -22.3411021 -0.219073E-07  0.172E-03    2.79      16.8  T
   6    -22.3411021 -0.409720E-08  0.557E-04    2.79      51.8  T
   7    -22.3411021 -0.536087E-09  0.206E-04    2.79     140.1  T
     SCC iter.                  ...        0 min,  0.006 sec
     gradient                   ...        0 min,  0.001 sec
 * total energy  :   -22.1096573 Eh     change       -0.4218908E-04 Eh
   gradient norm :     0.0060569 Eh/α   predicted    -0.3196144E-04 ( -24.24%)
   displ. norm   :     0.1020707 α      lambda       -0.6014659E-04
   maximum displ.:     0.0729624 α      in ANC's #2, #3, #19, ...

........................................................................
.............................. CYCLE   16 ..............................
........................................................................

 iter      E             dE          RMSdq      gap      omega  full diag
   1    -22.3411675 -0.223412E+02  0.186E-01    2.80       0.0  T
   2    -22.3411680 -0.561248E-06  0.110E-01    2.80       1.0  T
   3    -22.3411681 -0.691739E-07  0.549E-03    2.80       5.3  T
   4    -22.3411683 -0.200238E-06  0.238E-03    2.80      12.1  T
   5    -22.3411683 -0.352867E-08  0.116E-03    2.80      24.8  T
   6    -22.3411683 -0.444154E-08  0.317E-04    2.80      91.0  T
   7    -22.3411683 -0.122970E-09  0.110E-04    2.80     262.9  T
     SCC iter.                  ...        0 min,  0.006 sec
     gradient                   ...        0 min,  0.004 sec
 * total energy  :   -22.1097013 Eh     change       -0.4403721E-04 Eh
   gradient norm :     0.0045384 Eh/α   predicted    -0.3038595E-04 ( -31.00%)
   displ. norm   :     0.2059206 α      lambda       -0.7007547E-04
   maximum displ.:     0.1566973 α      in ANC's #2, #3, #19, ...

........................................................................
.............................. CYCLE   17 ..............................
........................................................................

 iter      E             dE          RMSdq      gap      omega  full diag
   1    -22.3396600 -0.223397E+02  0.387E-01    2.77       0.0  T
   2    -22.3396624 -0.243424E-05  0.228E-01    2.78       1.0  T
   3    -22.3396631 -0.724624E-06  0.910E-03    2.79       3.2  T
   4    -22.3396635 -0.353967E-06  0.482E-03    2.79       6.0  T
   5    -22.3396635 -0.267917E-07  0.230E-03    2.79      12.6  T
   6    -22.3396635 -0.144660E-07  0.761E-04    2.79      37.9  T
   7    -22.3396635 -0.119436E-08  0.222E-04    2.79     130.0  T
     SCC iter.                  ...        0 min,  0.003 sec
     gradient                   ...        0 min,  0.004 sec
 * total energy  :   -22.1097303 Eh     change       -0.2897410E-04 Eh
   gradient norm :     0.0090688 Eh/α   predicted    -0.3652213E-04 (  26.05%)
   displ. norm   :     0.0863553 α      lambda       -0.1288399E-03
   maximum displ.:     0.0667682 α      in ANC's #2, #19, #3, ...

........................................................................
.............................. CYCLE   18 ..............................
........................................................................

 iter      E             dE          RMSdq      gap      omega  full diag
   1    -22.3414261 -0.223414E+02  0.153E-01    2.82       0.0  T
   2    -22.3414274 -0.131651E-05  0.906E-02    2.81       1.0  T
   3    -22.3414268  0.585173E-06  0.100E-02    2.81       2.9  T
   4    -22.3414277 -0.886228E-06  0.245E-03    2.81      11.8  T
   5    -22.3414278 -0.203693E-07  0.129E-03    2.81      22.5  T
   6    -22.3414278 -0.287682E-08  0.573E-04    2.81      50.4  T
   7    -22.3414278 -0.423061E-09  0.195E-04    2.81     148.1  T
     SCC iter.                  ...        0 min,  0.006 sec
     gradient                   ...        0 min,  0.001 sec
 * total energy  :   -22.1098085 Eh     change       -0.7817733E-04 Eh
   gradient norm :     0.0028260 Eh/α   predicted    -0.6490111E-04 ( -16.98%)
   displ. norm   :     0.2512108 α      lambda       -0.1028209E-03
   maximum displ.:     0.1783077 α      in ANC's #2, #3, #19, ...

........................................................................
.............................. CYCLE   19 ..............................
........................................................................

 iter      E             dE          RMSdq      gap      omega  full diag
   1    -22.3396960 -0.223397E+02  0.461E-01    2.75       0.0  T
   2    -22.3397004 -0.434719E-05  0.272E-01    2.76       1.0  T
   3    -22.3397010 -0.663525E-06  0.137E-02    2.78       2.1  T
   4    -22.3397020 -0.100796E-05  0.617E-03    2.77       4.7  T
   5    -22.3397021 -0.717883E-07  0.298E-03    2.77       9.7  T
   6    -22.3397021 -0.157102E-07  0.119E-03    2.77      24.2  T
   7    -22.3397021 -0.295935E-08  0.279E-04    2.77     103.5  T
   8    -22.3397021 -0.651603E-10  0.103E-04    2.77     281.2  T
     SCC iter.                  ...        0 min,  0.003 sec
     gradient                   ...        0 min,  0.001 sec
 * total energy  :   -22.1098439 Eh     change       -0.3546496E-04 Eh
   gradient norm :     0.0113394 Eh/α   predicted    -0.5465402E-04 (  54.11%)
   displ. norm   :     0.0455580 α      lambda       -0.1270688E-03
   maximum displ.:     0.0350385 α      in ANC's #2, #5, #4, ...

........................................................................
.............................. CYCLE   20 ..............................
........................................................................

 iter      E             dE          RMSdq      gap      omega  full diag
   1    -22.3422045 -0.223422E+02  0.589E-02    2.81       0.0  T
   2    -22.3422064 -0.190925E-05  0.346E-02    2.81       1.0  T
   3    -22.3422062  0.266049E-06  0.947E-03    2.80       3.0  T
   4    -22.3422066 -0.469476E-06  0.239E-03    2.80      12.1  T
   5    -22.3422066 -0.275624E-07  0.798E-04    2.80      36.2  T
   6    -22.3422067 -0.353262E-08  0.340E-04    2.80      84.9  T
     SCC iter.                  ...        0 min,  0.005 sec
     gradient                   ...        0 min,  0.001 sec
 * total energy  :   -22.1099146 Eh     change       -0.7070027E-04 Eh
   gradient norm :     0.0023919 Eh/α   predicted    -0.6366644E-04 (  -9.95%)
   displ. norm   :     0.1573050 α      lambda       -0.7029058E-04
   maximum displ.:     0.0992015 α      in ANC's #2, #3, #19, ...
 * RMSD in coord.:     0.5431404 α      energy gain  -0.1165667E-01 Eh

generating ANC from exact Hessian ...
Using Lindh-Hessian (1995)
 Shifting diagonal of input Hessian by   3.627263100139455E-003
 Lowest  eigenvalues of input Hessian
    0.000000    0.000000    0.000000    0.000000    0.000000    0.000000
    0.010000    0.012994    0.019129    0.033378    0.042846    0.053416
    0.055194    0.073928    0.086490    0.096445    0.096734    0.119271
 Highest eigenvalues
    1.205789    1.332774    1.415163    1.669173    2.207948    2.302840
 

........................................................................
.............................. CYCLE   21 ..............................
........................................................................

 iter      E             dE          RMSdq      gap      omega  full diag
   1    -22.3423047 -0.223423E+02  0.286E-01    2.79       0.0  T
   2    -22.3423059 -0.126481E-05  0.169E-01    2.80       1.0  T
   3    -22.3423065 -0.583583E-06  0.551E-03    2.80       5.2  T
   4    -22.3423066 -0.501859E-07  0.343E-03    2.80       8.4  T
   5    -22.3423066 -0.149493E-07  0.145E-03    2.80      19.9  T
   6    -22.3423066 -0.611713E-08  0.473E-04    2.80      61.0  T
   7    -22.3423066 -0.531319E-09  0.236E-04    2.80     122.5  T
     SCC iter.                  ...        0 min,  0.003 sec
     gradient                   ...        0 min,  0.002 sec
 * total energy  :   -22.1099610 Eh     change       -0.4631976E-04 Eh
   gradient norm :     0.0034163 Eh/α   predicted     0.0000000E+00 (-100.00%)
   displ. norm   :     0.0192601 α      lambda       -0.3054573E-04
   maximum displ.:     0.0123224 α      in ANC's #3, #2, #4, ...

........................................................................
.............................. CYCLE   22 ..............................
........................................................................

 iter      E             dE          RMSdq      gap      omega  full diag
   1    -22.3427709 -0.223428E+02  0.302E-02    2.81       0.0  T
   2    -22.3427710 -0.536227E-07  0.180E-02    2.81       1.6  T
   3    -22.3427710  0.308459E-07  0.232E-03    2.81      12.4  T
   4    -22.3427710 -0.482527E-07  0.547E-04    2.81      52.8  T
   5    -22.3427710 -0.567226E-09  0.287E-04    2.81     100.4  T
     SCC iter.                  ...        0 min,  0.005 sec
     gradient                   ...        0 min,  0.001 sec
 * total energy  :   -22.1099824 Eh     change       -0.2142776E-04 Eh
   gradient norm :     0.0013745 Eh/α   predicted    -0.1527948E-04 ( -28.69%)
   displ. norm   :     0.0810362 α      lambda       -0.3125712E-04
   maximum displ.:     0.0555173 α      in ANC's #2, #3, #1, ...

........................................................................
.............................. CYCLE   23 ..............................
........................................................................

 iter      E             dE          RMSdq      gap      omega  full diag
   1    -22.3431865 -0.223432E+02  0.137E-01    2.82       0.0  T
   2    -22.3431870 -0.484343E-06  0.811E-02    2.82       1.0  T
   3    -22.3431870 -0.125163E-07  0.575E-03    2.82       5.0  T
   4    -22.3431873 -0.239059E-06  0.244E-03    2.82      11.8  T
   5    -22.3431873 -0.633594E-08  0.768E-04    2.82      37.6  T
   6    -22.3431873 -0.163501E-08  0.334E-04    2.82      86.5  T
     SCC iter.                  ...        0 min,  0.009 sec
     gradient                   ...        0 min,  0.001 sec
 * total energy  :   -22.1099937 Eh     change       -0.1126010E-04 Eh
   gradient norm :     0.0038013 Eh/α   predicted    -0.1567354E-04 (  39.20%)
   displ. norm   :     0.0427531 α      lambda       -0.3229596E-04
   maximum displ.:     0.0292256 α      in ANC's #3, #2, #9, ...

........................................................................
.............................. CYCLE   24 ..............................
........................................................................

 iter      E             dE          RMSdq      gap      omega  full diag
   1    -22.3428929 -0.223429E+02  0.726E-02    2.81       0.0  T
   2    -22.3428931 -0.159410E-06  0.428E-02    2.81       1.0  T
   3    -22.3428931 -0.107914E-07  0.231E-03    2.81      12.5  T
   4    -22.3428931 -0.336068E-07  0.991E-04    2.81      29.1  T
   5    -22.3428931 -0.179537E-08  0.455E-04    2.81      63.4  T
     SCC iter.                  ...        0 min,  0.006 sec
     gradient                   ...        0 min,  0.001 sec
 * total energy  :   -22.1100174 Eh     change       -0.2376433E-04 Eh
   gradient norm :     0.0028934 Eh/α   predicted    -0.1617744E-04 ( -31.93%)
   displ. norm   :     0.1073970 α      lambda       -0.4759633E-04
   maximum displ.:     0.0711788 α      in ANC's #2, #3, #1, ...

........................................................................
.............................. CYCLE   25 ..............................
........................................................................

 iter      E             dE          RMSdq      gap      omega  full diag
   1    -22.3420570 -0.223421E+02  0.182E-01    2.79       0.0  T
   2    -22.3420576 -0.655371E-06  0.107E-01    2.80       1.0  T
   3    -22.3420579 -0.221132E-06  0.384E-03    2.80       7.5  T
   4    -22.3420579 -0.514903E-07  0.214E-03    2.80      13.5  T
   5    -22.3420579 -0.582450E-08  0.778E-04    2.80      37.1  T
   6    -22.3420579 -0.729241E-09  0.265E-04    2.80     109.0  T
     SCC iter.                  ...        0 min,  0.003 sec
     gradient                   ...        0 min,  0.001 sec
 * total energy  :   -22.1100487 Eh     change       -0.3131621E-04 Eh
   gradient norm :     0.0045146 Eh/α   predicted    -0.2407334E-04 ( -23.13%)
   displ. norm   :     0.0811809 α      lambda       -0.2516395E-04
   maximum displ.:     0.0591471 α      in ANC's #2, #3, #1, ...

........................................................................
.............................. CYCLE   26 ..............................
........................................................................

 iter      E             dE          RMSdq      gap      omega  full diag
   1    -22.3417955 -0.223418E+02  0.134E-01    2.80       0.0  T
   2    -22.3417958 -0.268998E-06  0.790E-02    2.80       1.0  T
   3    -22.3417959 -0.139960E-06  0.272E-03    2.80      10.6  T
   4    -22.3417959 -0.110675E-07  0.162E-03    2.80      17.8  T
   5    -22.3417959 -0.477361E-08  0.460E-04    2.80      62.8  T
   6    -22.3417959 -0.394543E-09  0.221E-04    2.80     130.6  T
     SCC iter.                  ...        0 min,  0.005 sec
     gradient                   ...        0 min,  0.001 sec
 * total energy  :   -22.1100644 Eh     change       -0.1564007E-04 Eh
   gradient norm :     0.0049976 Eh/α   predicted    -0.1266688E-04 ( -19.01%)
   displ. norm   :     0.0341170 α      lambda       -0.2430966E-04
   maximum displ.:     0.0253059 α      in ANC's #2, #1, #3, ...

........................................................................
.............................. CYCLE   27 ..............................
........................................................................

 iter      E             dE          RMSdq      gap      omega  full diag
   1    -22.3425256 -0.223425E+02  0.504E-02    2.82       0.0  T
   2    -22.3425260 -0.443548E-06  0.300E-02    2.81       1.0  T
   3    -22.3425260  0.567089E-07  0.422E-03    2.81       6.8  T
   4    -22.3425261 -0.119592E-06  0.113E-03    2.81      25.4  T
   5    -22.3425261 -0.417614E-08  0.542E-04    2.81      53.3  T
   6    -22.3425261 -0.106734E-08  0.260E-04    2.81     111.1  T
     SCC iter.                  ...        0 min,  0.003 sec
     gradient                   ...        0 min,  0.001 sec
 * total energy  :   -22.1100796 Eh     change       -0.1524631E-04 Eh
   gradient norm :     0.0021554 Eh/α   predicted    -0.1216980E-04 ( -20.18%)
   displ. norm   :     0.0651539 α      lambda       -0.1692793E-04
   maximum displ.:     0.0434562 α      in ANC's #2, #3, #1, ...

........................................................................
.............................. CYCLE   28 ..............................
........................................................................

 iter      E             dE          RMSdq      gap      omega  full diag
   1    -22.3426414 -0.223426E+02  0.104E-01    2.81       0.0  T
   2    -22.3426416 -0.206881E-06  0.614E-02    2.81       1.0  T
   3    -22.3426417 -0.792278E-07  0.247E-03    2.81      11.7  T
   4    -22.3426417 -0.243098E-07  0.137E-03    2.81      21.0  T
   5    -22.3426417 -0.111329E-08  0.522E-04    2.81      55.3  T
   6    -22.3426417 -0.112736E-08  0.199E-04    2.81     145.3  T
     SCC iter.                  ...        0 min,  0.010 sec
     gradient                   ...        0 min,  0.001 sec
 * total energy  :   -22.1100929 Eh     change       -0.1324752E-04 Eh
   gradient norm :     0.0018237 Eh/α   predicted    -0.8500014E-05 ( -35.84%)
   displ. norm   :     0.1337655 α      lambda       -0.2216895E-04
   maximum displ.:     0.0898751 α      in ANC's #3, #2, #1, ...

........................................................................
.............................. CYCLE   29 ..............................
........................................................................

 iter      E             dE          RMSdq      gap      omega  full diag
   1    -22.3427631 -0.223428E+02  0.212E-01    2.80       0.0  T
   2    -22.3427638 -0.714882E-06  0.125E-01    2.80       1.0  T
   3    -22.3427642 -0.380902E-06  0.434E-03    2.80       6.7  T
   4    -22.3427642 -0.323502E-07  0.258E-03    2.80      11.2  T
   5    -22.3427642 -0.650811E-08  0.847E-04    2.80      34.1  T
   6    -22.3427642 -0.285759E-08  0.359E-04    2.80      80.5  T
     SCC iter.                  ...        0 min,  0.002 sec
     gradient                   ...        0 min,  0.001 sec
 * total energy  :   -22.1101084 Eh     change       -0.1554111E-04 Eh
   gradient norm :     0.0019677 Eh/α   predicted    -0.1117399E-04 ( -28.10%)
   displ. norm   :     0.0191190 α      lambda       -0.4262992E-05
   maximum displ.:     0.0122844 α      in ANC's #1, #3, #2, ...

........................................................................
.............................. CYCLE   30 ..............................
........................................................................

 iter      E             dE          RMSdq      gap      omega  full diag
   1    -22.3434460 -0.223434E+02  0.251E-02    2.82       0.0  T
   2    -22.3434461 -0.102924E-06  0.148E-02    2.81       1.9  T
   3    -22.3434460  0.143993E-07  0.221E-03    2.81      13.0  T
   4    -22.3434461 -0.316946E-07  0.610E-04    2.81      47.3  T
   5    -22.3434461 -0.126315E-08  0.293E-04    2.81      98.4  T
     SCC iter.                  ...        0 min,  0.002 sec
     gradient                   ...        0 min,  0.001 sec
 * total energy  :   -22.1101086 Eh     change       -0.2289022E-06 Eh
   gradient norm :     0.0017273 Eh/α   predicted    -0.2130840E-05 ( 830.90%)
   displ. norm   :     0.0445752 α      lambda       -0.5447172E-05
   maximum displ.:     0.0343084 α      in ANC's #2, #3, #4, ...

........................................................................
.............................. CYCLE   31 ..............................
........................................................................

 iter      E             dE          RMSdq      gap      omega  full diag
   1    -22.3430313 -0.223430E+02  0.727E-02    2.81       0.0  T
   2    -22.3430314 -0.116315E-06  0.430E-02    2.81       1.0  T
   3    -22.3430315 -0.963080E-08  0.235E-03    2.81      12.3  T
   4    -22.3430315 -0.426992E-07  0.103E-03    2.81      27.9  T
   5    -22.3430315 -0.123221E-08  0.479E-04    2.81      60.3  T
   6    -22.3430315 -0.721201E-09  0.163E-04    2.81     176.8  T
     SCC iter.                  ...        0 min,  0.003 sec
     gradient                   ...        0 min,  0.001 sec
 * total energy  :   -22.1101119 Eh     change       -0.3282498E-05 Eh
   gradient norm :     0.0006206 Eh/α   predicted    -0.2725885E-05 ( -16.96%)
   displ. norm   :     0.0110595 α      lambda       -0.1637439E-05
   maximum displ.:     0.0091336 α      in ANC's #1, #2, #3, ...

........................................................................
.............................. CYCLE   32 ..............................
........................................................................

 iter      E             dE          RMSdq      gap      omega  full diag
   1    -22.3429927 -0.223430E+02  0.113E-02    2.80       0.0  T
   2    -22.3429927 -0.128761E-07  0.664E-03    2.81       4.3  T
   3    -22.3429927  0.586117E-08  0.118E-03    2.81      24.4  T
   4    -22.3429927 -0.957113E-08  0.261E-04    2.81     110.6  T
   5    -22.3429927 -0.590781E-10  0.936E-05    2.81     308.4  T
     SCC iter.                  ...        0 min,  0.002 sec
     gradient                   ...        0 min,  0.005 sec
 * total energy  :   -22.1101132 Eh     change       -0.1287556E-05 Eh
   gradient norm :     0.0005687 Eh/α   predicted    -0.8205657E-06 ( -36.27%)
   displ. norm   :     0.0093830 α      lambda       -0.4784525E-06
   maximum displ.:     0.0070607 α      in ANC's #1, #2, #3, ...

........................................................................
.............................. CYCLE   33 ..............................
........................................................................

 iter      E             dE          RMSdq      gap      omega  full diag
   1    -22.3430335 -0.223430E+02  0.992E-03    2.81       0.0  T
   2    -22.3430336 -0.752027E-08  0.588E-03    2.81       4.9  T
   3    -22.3430336 -0.377675E-09  0.463E-04    2.81      62.3  T
   4    -22.3430336 -0.169648E-08  0.200E-04    2.81     144.5  T
     SCC iter.                  ...        0 min,  0.002 sec
     gradient                   ...        0 min,  0.005 sec
 * total energy  :   -22.1101138 Eh     change       -0.5460386E-06 Eh
   gradient norm :     0.0001941 Eh/α   predicted    -0.2400287E-06 ( -56.04%)
   displ. norm   :     0.0155912 α      lambda       -0.4303899E-06
   maximum displ.:     0.0107287 α      in ANC's #1, #2, #3, ...

........................................................................
.............................. CYCLE   34 ..............................
........................................................................

 iter      E             dE          RMSdq      gap      omega  full diag
   1    -22.3430546 -0.223431E+02  0.185E-02    2.81       0.0  T
   2    -22.3430546 -0.129127E-07  0.109E-02    2.81       2.6  T
   3    -22.3430546 -0.648882E-09  0.791E-04    2.81      36.5  T
   4    -22.3430546 -0.469204E-08  0.327E-04    2.81      88.4  T
     SCC iter.                  ...        0 min,  0.005 sec
     gradient                   ...        0 min,  0.002 sec
 * total energy  :   -22.1101142 Eh     change       -0.4077765E-06 Eh
   gradient norm :     0.0001148 Eh/α   predicted    -0.2145524E-06 ( -47.38%)
   displ. norm   :     0.0057706 α      lambda       -0.8801586E-07
   maximum displ.:     0.0053529 α      in ANC's #1, #2, #11, ...

........................................................................
.............................. CYCLE   35 ..............................
........................................................................

 iter      E             dE          RMSdq      gap      omega  full diag
   1    -22.3430531 -0.223431E+02  0.343E-03    2.81       0.0  T
   2    -22.3430531 -0.987043E-09  0.200E-03    2.81      14.5  T
   3    -22.3430531 -0.269516E-09  0.173E-04    2.81     166.8  T
   4    -22.3430531 -0.140236E-09  0.886E-05    2.81     325.8  T
     SCC iter.                  ...        0 min,  0.006 sec
     gradient                   ...        0 min,  0.001 sec
 * total energy  :   -22.1101142 Eh     change       -0.9050174E-07 Eh
   gradient norm :     0.0001118 Eh/α   predicted    -0.4445711E-07 ( -50.88%)
   displ. norm   :     0.0032883 α      lambda       -0.3412143E-07
   maximum displ.:     0.0028877 α      in ANC's #1, #3, #11, ...

   *** GEOMETRY OPTIMIZATION CONVERGED AFTER 35 ITERATIONS ***

------------------------------------------------------------------------
 total energy gain   :        -0.0118563 Eh       -7.4399 kcal/mol
 total RMSD          :         0.6882673 a0        0.3642 Å
 total power (kW/mol):        -0.8893901 (step)  -96.4467 (real)
------------------------------------------------------------------------

 ANCopt (total)                0 d,  0 h,  0 min,  0.323 sec
 optimizer setup                ...        0 min,  0.000 sec (  0.041%)
 model hessian                  ...        0 min,  0.005 sec (  1.404%)
 ANC generation                 ...        0 min,  0.000 sec (  0.139%)
 coordinate transformation      ...        0 min,  0.000 sec (  0.122%)
 single point calculation       ...        0 min,  0.305 sec ( 94.411%)
 optimization log               ...        0 min,  0.003 sec (  0.856%)
 hessian update                 ...        0 min,  0.005 sec (  1.587%)
 rational function              ...        0 min,  0.003 sec (  0.839%)

================
 final structure:
================
12
 xtb: 6.7.1 (edcfbbe)
N           -2.52416265579176       -0.08121238318457       -0.47248339024229
C           -1.36266840436453       -0.04564545427775       -0.02598882284432
C           -0.29640660700149       -0.98775857233026        0.51451030663384
C            0.51107023665079        0.32509226271631        0.64176306759316
O           -0.59976767679803        1.07191193093435        0.11815487284960
C            1.72423984233592        0.37085185866250       -0.24799092718833
O            2.82582449448695        0.04286762779278        0.09039384199327
H           -2.94879140377820       -1.00075923959993       -0.51010462045848
H            0.09083366712704       -1.71055070315678       -0.20099352495490
H           -0.53561979766004       -1.48103594455039        1.45324065987491
H            0.75747711438171        0.62434248381917        1.66451111570833
H            1.49443798671161        0.70970820047455       -1.27517798406474
 
 Bond Distances (Angstroems)
 ---------------------------
N1-C2=1.2449         N1-H8=1.0136         C2-N1=1.2449         C2-C3=1.5220         C2-O5=1.3608         C3-C2=1.5220         
C3-C4=1.5465         C3-H9=1.0883         C3-H10=1.0871        C4-C3=1.5465         C4-O5=1.4373         C4-C6=1.5052         
C4-H11=1.0937        O5-C2=1.3608         O5-C4=1.4373         C6-C4=1.5052         C6-O7=1.1982         C6-H12=1.1058        
O7-C6=1.1982         H8-N1=1.0136         H9-C3=1.0883         H10-C3=1.0871        H11-C4=1.0937        H12-C6=1.1058        
 C  H  Rav=1.0937 sigma=0.0074  Rmin=1.0871  Rmax=1.1058     4
 C  C  Rav=1.5246 sigma=0.0170  Rmin=1.5052  Rmax=1.5465     3
 N  H  Rav=1.0136 sigma=0.0000  Rmin=1.0136  Rmax=1.0136     1
 N  C  Rav=1.2449 sigma=0.0000  Rmin=1.2449  Rmax=1.2449     1
 O  C  Rav=1.3321 sigma=0.0997  Rmin=1.1982  Rmax=1.4373     3
 
 selected bond angles (degree)
 --------------------
H8-N1-C2=115.48                C3-C2-N1=139.76                O5-C2-N1=125.77                O5-C2-C3= 94.47                
C4-C3-C2= 82.50                H9-C3-C2=115.27                H9-C3-C4=115.60                H10-C3-C2=115.68               
H10-C3-C4=115.41               H10-C3-H9=110.16               O5-C4-C3= 90.43                C6-C4-C3=113.45                
C6-C4-O5=113.07                H11-C4-C3=115.27               H11-C4-O5=111.88               H11-C4-C6=111.28               
C4-O5-C2= 92.59                O7-C6-C4=124.46                H12-C6-C4=113.01               H12-C6-O7=122.50               
 
 selected dihedral angles (degree)
 ---------------------------------
C3-C2-N1-H8=  0.24            O5-C2-N1-H8=180.12            C4-C3-C2-N1=179.64            C4-C3-C2-O5=359.73            
H9-C3-C2-N1= 64.81            H9-C3-C2-O5=244.91            H10-C3-C2-N1=294.27           H10-C3-C2-O5=114.37           
O5-C4-C3-C2=  0.25            O5-C4-C3-H9=114.73            O5-C4-C3-H10=245.33           C6-C4-C3-C2=244.76            
C6-C4-C3-H9=359.24            C6-C4-C3-H10=129.84           H11-C4-C3-C2=114.81           H11-C4-C3-H9=229.29           
H11-C4-C3-H10=359.89          C4-O5-C2-N1=180.36            C4-O5-C2-C3=  0.28            C2-O5-C4-C3=359.72            
C2-O5-C4-C6=115.56            C2-O5-C4-H11=242.14           O7-C6-C4-C3=266.53            O7-C6-C4-O5=165.36            
O7-C6-C4-H11= 38.47           H12-C6-C4-C3= 84.54           H12-C6-C4-O5=343.37           H12-C6-C4-H11=216.47          
           -------------------------------------------------
          |                Final Singlepoint                |
           -------------------------------------------------

          ...................................................
          :                      SETUP                      :
          :.................................................:
          :  # basis functions                  33          :
          :  # atomic orbitals                  33          :
          :  # shells                           19          :
          :  # electrons                        38          :
          :  max. iterations                    40          :
          :  Hamiltonian                  GFN2-xTB          :
          :  restarted?                      false          :
          :  GBSA solvation                   true          :
          :  PC potential                    false          :
          :  electronic temp.          300.0000000     K    :
          :  accuracy                    1.0000000          :
          :  -> integral cutoff          0.2500000E+02      :
          :  -> integral neglect         0.1000000E-07      :
          :  -> SCF convergence          0.1000000E-05 Eh   :
          :  -> wf. convergence          0.1000000E-03 e    :
          :  Broyden damping             0.4000000          :
          :  net charge                          0          :
          :  unpaired electrons                  0          :
          ...................................................

 iter      E             dE          RMSdq      gap      omega  full diag
   1    -22.3430531 -0.223431E+02  0.293E-05    2.81       0.0  T
   2    -22.3430531 -0.117240E-11  0.189E-05    2.81    1527.2  T
   3    -22.3430531 -0.188294E-12  0.110E-05    2.81    2616.5  T

   *** convergence criteria satisfied after 3 iterations ***

         #    Occupation            Energy/Eh            Energy/eV
      -------------------------------------------------------------
         1        2.0000           -0.7558039             -20.5665
       ...           ...                  ...                  ...
        13        2.0000           -0.5288458             -14.3906
        14        2.0000           -0.5124685             -13.9450
        15        2.0000           -0.5070078             -13.7964
        16        2.0000           -0.4885295             -13.2936
        17        2.0000           -0.4521038             -12.3024
        18        2.0000           -0.4270162             -11.6197
        19        2.0000           -0.4021804             -10.9439 (HOMO)
        20                         -0.2990422              -8.1374 (LUMO)
        21                         -0.2345937              -6.3836
        22                         -0.0418947              -1.1400
        23                         -0.0196231              -0.5340
        24                          0.0547244               1.4891
       ...                                ...                  ...
        33                          0.6519759              17.7412
      -------------------------------------------------------------
                  HL-Gap            0.1031382 Eh            2.8065 eV
             Fermi-level           -0.3506113 Eh           -9.5406 eV

 SCC (total)                   0 d,  0 h,  0 min,  0.011 sec
 SCC setup                      ...        0 min,  0.000 sec (  1.485%)
 Dispersion                     ...        0 min,  0.000 sec (  0.393%)
 classical contributions        ...        0 min,  0.000 sec (  0.090%)
 integral evaluation            ...        0 min,  0.002 sec ( 17.015%)
 iterations                     ...        0 min,  0.004 sec ( 32.813%)
 molecular gradient             ...        0 min,  0.005 sec ( 46.813%)
 printout                       ...        0 min,  0.000 sec (  1.020%)

         :::::::::::::::::::::::::::::::::::::::::::::::::::::
         ::                     SUMMARY                     ::
         :::::::::::::::::::::::::::::::::::::::::::::::::::::
         :: total energy             -22.110114249507 Eh    ::
         :: total w/o Gsasa/hb       -22.102174837678 Eh    ::
         :: gradient norm              0.000112273998 Eh/a0 ::
         :: HOMO-LUMO gap              2.806534419428 eV    ::
         ::.................................................::
         :: SCC energy               -22.343049231928 Eh    ::
         :: -> isotropic ES            0.049937309112 Eh    ::
         :: -> anisotropic ES          0.003683571434 Eh    ::
         :: -> anisotropic XC          0.008365863153 Eh    ::
         :: -> dispersion             -0.007064304982 Eh    ::
         :: -> Gsolv                  -0.010411869853 Eh    ::
         ::    -> Gelec               -0.002472458024 Eh    ::
         ::    -> Gsasa               -0.010147554968 Eh    ::
         ::    -> Ghb                  0.000000000000 Eh    ::
         ::    -> Gshift               0.002208143139 Eh    ::
         :: repulsion energy           0.232934982421 Eh    ::
         :: add. restraining           0.000000000000 Eh    ::
         :: total charge              -0.000000000000 e     ::
         :::::::::::::::::::::::::::::::::::::::::::::::::::::

           -------------------------------------------------
          |                Property Printout                |
           -------------------------------------------------

    * Orbital Energies and Occupations

         #    Occupation            Energy/Eh            Energy/eV
      -------------------------------------------------------------
         1        2.0000           -0.7558039             -20.5665
       ...           ...                  ...                  ...
         7        2.0000           -0.6136879             -16.6993
         8        2.0000           -0.5983755             -16.2826
         9        2.0000           -0.5963025             -16.2262
        10        2.0000           -0.5723163             -15.5735
        11        2.0000           -0.5587959             -15.2056
        12        2.0000           -0.5368670             -14.6089
        13        2.0000           -0.5288458             -14.3906
        14        2.0000           -0.5124685             -13.9450
        15        2.0000           -0.5070078             -13.7964
        16        2.0000           -0.4885295             -13.2936
        17        2.0000           -0.4521038             -12.3024
        18        2.0000           -0.4270162             -11.6197
        19        2.0000           -0.4021804             -10.9439 (HOMO)
        20                         -0.2990422              -8.1374 (LUMO)
        21                         -0.2345937              -6.3836
        22                         -0.0418947              -1.1400
        23                         -0.0196231              -0.5340
        24                          0.0547244               1.4891
        25                          0.0677037               1.8423
        26                          0.1006089               2.7377
        27                          0.1147882               3.1235
        28                          0.1714513               4.6654
        29                          0.2185270               5.9464
        30                          0.2532821               6.8922
       ...                                ...                  ...
        33                          0.6519759              17.7412
      -------------------------------------------------------------
                  HL-Gap            0.1031382 Eh            2.8065 eV
             Fermi-level           -0.3506113 Eh           -9.5406 eV

     #   Z          covCN         q      C6AA      α(0)
     1   7 N        1.771    -0.344    29.741     8.075
     2   6 C        3.181     0.256    22.352     7.718
     3   6 C        3.846    -0.090    22.185     6.700
     4   6 C        4.163     0.094    18.950     6.183
     5   8 O        1.747    -0.269    18.458     5.801
     6   6 C        2.756     0.209    23.563     7.949
     7   8 O        0.856    -0.311    19.974     5.992
     8   1 H        0.860     0.174     1.250     1.751
     9   1 H        0.925     0.070     2.082     2.256
    10   1 H        0.925     0.080     1.974     2.197
    11   1 H        0.924     0.077     2.006     2.215
    12   1 H        0.922     0.052     2.289     2.366

 Mol. C6AA /au·bohr⁶  :       1572.550822
 Mol. C8AA /au·bohr⁸  :      35635.093646
 Mol. α(0) /au        :         59.203719


Wiberg/Mayer (AO) data.
largest (>0.10) Wiberg bond orders for each atom

 ---------------------------------------------------------------------------
     #   Z sym  total        # sym  WBO       # sym  WBO       # sym  WBO
 ---------------------------------------------------------------------------
     1   7 N    3.046 --     2 C    1.855     8 H    0.936     5 O    0.136
     2   6 C    3.927 --     1 N    1.855     5 O    1.076     3 C    0.956
     3   6 C    3.982 --     9 H    0.965    10 H    0.962     2 C    0.956
                             4 C    0.952
     4   6 C    3.936 --     6 C    0.991     5 O    0.953     3 C    0.952
                            11 H    0.950
     5   8 O    2.246 --     2 C    1.076     4 C    0.953     1 N    0.136
     6   6 C    3.912 --     7 O    1.934     4 C    0.991    12 H    0.928
     7   8 O    2.101 --     6 C    1.934
     8   1 H    0.970 --     1 N    0.936
     9   1 H    0.995 --     3 C    0.965
    10   1 H    0.994 --     3 C    0.962
    11   1 H    0.994 --     4 C    0.950
    12   1 H    0.997 --     6 C    0.928
 ---------------------------------------------------------------------------

Topologies differ in total number of bonds
Writing topology from bond orders to xtbtopo.mol

molecular dipole:
                 x           y           z       tot (Debye)
 q only:       -0.329      -0.787       0.253
   full:       -0.188      -1.037       0.363       2.834
molecular quadrupole (traceless):
                xx          xy          yy          xz          yz          zz
 q only:       -8.260       4.618       3.565      -1.665      -0.158       4.695
  q+dip:      -12.975       7.127       4.929      -3.512       0.290       8.046
   full:      -13.174       7.493       5.740      -3.592       0.697       7.434

           -------------------------------------------------
          |                Geometry Summary                 |
           -------------------------------------------------

      molecular mass/u    :       99.0881604
   center of mass at/Å    :        0.0608616       0.0985401       0.0853399
  moments of inertia/u·Å² :        0.5615519E+02   0.3145583E+03   0.3378017E+03
rotational constants/cm⁻¹ :        0.3001972E+00   0.5359143E-01   0.4990392E-01

 * 9 selected distances

     #   Z          #   Z                                           value/Å
     1   7 N        2   6 C                                       1.2448661
     3   6 C        4   6 C                                       1.5465413 (max)
     2   6 C        5   8 O                                       1.3607828
     4   6 C        5   8 O                                       1.4373122
     4   6 C        6   6 C                                       1.5051701
     6   6 C        7   8 O                                       1.1981515
     3   6 C        9   1 H                                       1.0882690
     3   6 C       10   1 H                                       1.0870880 (min)
     4   6 C       11   1 H                                       1.0937462

 * 4 distinct bonds (by element types)

   Z      Z             #   av. dist./Å        max./Å        min./Å
   1 H    6 C           3     1.0897011     1.0937462     1.0870880
   6 C    6 C           2     1.5258557     1.5465413     1.5051701
   6 C    7 N           1     1.2448661     1.2448661     1.2448661
   6 C    8 O           3     1.3320822     1.4373122     1.1981515


optimized geometry written to: xtbopt.xyz


           -------------------------------------------------
          | TOTAL ENERGY              -22.110114249507 Eh   |
          | GRADIENT NORM               0.000112273998 Eh/α |
          | HOMO-LUMO GAP               2.806534419428 eV   |
           -------------------------------------------------

------------------------------------------------------------------------
 * finished run on 2024/08/07 at 21:17:08.781     
------------------------------------------------------------------------
 total:
 * wall-time:     0 d,  0 h,  0 min,  0.361 sec
 *  cpu-time:     0 d,  0 h,  0 min,  2.581 sec
 * ratio c/w:     7.141 speedup
 SCF:
 * wall-time:     0 d,  0 h,  0 min,  0.013 sec
 *  cpu-time:     0 d,  0 h,  0 min,  0.094 sec
 * ratio c/w:     7.013 speedup
 ANC optimizer:
 * wall-time:     0 d,  0 h,  0 min,  0.335 sec
 *  cpu-time:     0 d,  0 h,  0 min,  2.407 sec
 * ratio c/w:     7.186 speedup

