12
 energy: -22.098257970974 gnorm: 0.085346917701 xtb: 6.7.1 (edcfbbe)
N           -2.55749794200000       -0.31333363220000       -0.46456439280000
C           -1.38634794960000       -0.03358294850000       -0.05866652750000
C           -0.32193112300000       -0.91471637970000        0.53835579680000
C            0.50840191150000        0.38483175270000        0.59973364280000
O           -0.60242719380000        1.11253327250000        0.02020233170000
C            1.74186833060000        0.37668768330000       -0.26197311060000
O            2.48024782660000       -0.55839075640000       -0.33499480710000
H           -2.90241752060000       -1.23511681490000       -0.41837596870000
H            0.08352359330000       -1.65138396970000       -0.16201719650000
H           -0.59213928800000       -1.34416796440000        1.50887518560000
H            0.69913998580000        0.75442010150000        1.62499943090000
H            1.98604616550000        1.26003172310000       -0.84173978970000
12
 energy: -22.106158823109 gnorm: 0.034502470854 xtb: 6.7.1 (edcfbbe)
N           -2.53926132277800       -0.25384589765143       -0.47475307985022
C           -1.38054735366817       -0.04918766782354       -0.06079849439877
C           -0.31410944747570       -0.94017749571225        0.55027032979397
C            0.49255393009044        0.37082370494565        0.58873973953941
O           -0.61628903759214        1.08948973677630       -0.00117640751301
C            1.74279700769883        0.38114547396080       -0.25022739910294
O            2.49673664731100       -0.55131489332902       -0.32400099020707
H           -2.90083779434720       -1.18959554927339       -0.42079984716926
H            0.09160018709088       -1.69219451415372       -0.12538930203676
H           -0.57093185759166       -1.37213918599266        1.51528611840015
H            0.70312488072320        0.75737431828737        1.59589201345614
H            1.93163095683852        1.28743403726590       -0.84320808601164
12
 energy: -22.108770465919 gnorm: 0.017859616183 xtb: 6.7.1 (edcfbbe)
N           -2.53852525812921       -0.19686628406329       -0.49206691014709
C           -1.37706225836638       -0.07803640270285       -0.06146227672940
C           -0.30710761057991       -0.96695221327304        0.56737205710165
C            0.48581237546172        0.34909022292994        0.57421435768026
O           -0.62464105311468        1.05049195282925       -0.02349390865798
C            1.73435820573634        0.37644200305146       -0.26895064512215
O            2.53504066215411       -0.52109590029959       -0.30703414585188
H           -2.92602595265288       -1.13468142132776       -0.42827480272282
H            0.09930538974913       -1.73473800770814       -0.08652338356651
H           -0.55246598787582       -1.39158957547557        1.53467148218945
H            0.71846363672212        0.76062136979452        1.56416641256878
H            1.88931464719545        1.32512632354505       -0.82278364184230
12
 energy: -22.108953653085 gnorm: 0.013958554201 xtb: 6.7.1 (edcfbbe)
N           -2.53424001220070       -0.17620134000566       -0.50611277202289
C           -1.37028021578483       -0.09141587074307       -0.06259430652262
C           -0.30376564873904       -0.97613851540634        0.57642488343375
C            0.49029828525579        0.33886419256057        0.58070250848693
O           -0.61666611469246        1.03516976451018       -0.02449953591203
C            1.75042700669837        0.38995668482163       -0.24781104350208
O            2.54422027522659       -0.50442488612849       -0.31631226193233
H           -2.93657144342070       -1.10888889151247       -0.44501268325286
H            0.10619095626903       -1.75075708957394       -0.06849273539397
H           -0.55372708767424       -1.39426346910004        1.54642293947340
H            0.72028026564412        0.75506664954078        1.56856473391443
H            1.84030052971807        1.32084483833685       -0.85144513186975
12
 energy: -22.109210238245 gnorm: 0.005498999555 xtb: 6.7.1 (edcfbbe)
N           -2.53624119667495       -0.17954147542888       -0.50179686529395
C           -1.37229560902702       -0.09335397794780       -0.06195945855016
C           -0.30622474244142       -0.97600715613194        0.57493299675420
C            0.49098039702049        0.33751350324493        0.57656492218117
O           -0.61507489263472        1.03499105489851       -0.02768957944490
C            1.74541879510883        0.38542997488787       -0.26085267567947
O            2.55383032828918       -0.49759759779929       -0.31306107931058
H           -2.94035131391974       -1.10938637510814       -0.44233435742224
H            0.10127014029618       -1.75278208507686       -0.06978338130958
H           -0.55597441534494       -1.39013749857868        1.54795353298391
H            0.72104566406275        0.75354613588530        1.56553258299994
H            1.85008364156537        1.32513756445499       -0.83767204300835
12
 energy: -22.109264552362 gnorm: 0.002715357111 xtb: 6.7.1 (edcfbbe)
N           -2.53507075970954       -0.17836453449484       -0.50159876171609
C           -1.37157378826006       -0.09625284203864       -0.06209325195966
C           -0.30691861477636       -0.97721535007691        0.57462751043147
C            0.49261914792914        0.33486642566152        0.57622186781662
O           -0.61195205463156        1.03364351390855       -0.02834113344924
C            1.74615429597067        0.38509872660221       -0.26340208234161
O            2.56580181043631       -0.48795285580496       -0.30887829630356
H           -2.94549368425622       -1.10422187510558       -0.44323131214111
H            0.09903784617128       -1.75636229684041       -0.06825094567807
H           -0.55881286663984       -1.38814082636099        1.54907562667989
H            0.72149952001337        0.74941062397799        1.56651608647241
H            1.84117594405281        1.32330335787204       -0.84081071291105
12
 energy: -22.109305341513 gnorm: 0.002644578950 xtb: 6.7.1 (edcfbbe)
N           -2.53246933521156       -0.17512631710530       -0.50248679347390
C           -1.36979151424439       -0.09895651505060       -0.06201988929818
C           -0.30694742125158       -0.97926953549717        0.57472936457852
C            0.49495856580510        0.33139684015514        0.57753193433925
O           -0.60808833030555        1.03245832193664       -0.02639511300283
C            1.74729028390878        0.38562069394848       -0.26423544292529
O            2.58161594350614       -0.47380460579488       -0.29971910379657
H           -2.95227225313367       -1.09603802106707       -0.44769741919128
H            0.09757598679253       -1.76097315761687       -0.06557884387828
H           -0.56151383005742       -1.38743781141180        1.55001321582521
H            0.72325909772899        0.74297642469647        1.56946134324247
H            1.82284960276262        1.31696575010697       -0.85376865751914
12
 energy: -22.109338623765 gnorm: 0.003521965954 xtb: 6.7.1 (edcfbbe)
N           -2.52966411869949       -0.17102448403875       -0.50349325499233
C           -1.36814701442555       -0.09971711174204       -0.06101417681545
C           -0.30630631210974       -0.98123860546949        0.57473250749692
C            0.49709206649726        0.32876721173367        0.58017106037474
O           -0.60566527334483        1.03240767843654       -0.02091548789688
C            1.74734941945894        0.38615768879499       -0.26424670828490
O            2.59688054558680       -0.45884180861462       -0.28514194497849
H           -2.95756847680892       -1.08809356247150       -0.45508028180903
H            0.09715196250751       -1.76419078978553       -0.06419199243507
H           -0.56258408601574       -1.38868995958015        1.54992400246416
H            0.72643122768254        0.73620262143420        1.57357669059259
H            1.80149685597120        1.30607318860270       -0.87448581881627
12
 energy: -22.109383229333 gnorm: 0.005567367733 xtb: 6.7.1 (edcfbbe)
N           -2.52528935416292       -0.16347780561648       -0.50473137770225
C           -1.36609810098271       -0.09834413417345       -0.05785935674510
C           -0.30466487864024       -0.98410925862329        0.57390310153806
C            0.50010731329879        0.32588217701231        0.58575255832883
O           -0.60398874370012        1.03417115036617       -0.00697878681088
C            1.74567989583029        0.38670328720691       -0.26420159910661
O            2.62220178214484       -0.43182158929383       -0.25244833657998
H           -2.96366898007742       -1.07582223096883       -0.47003943954543
H            0.09721813518332       -1.76719086794830       -0.06506767060125
H           -0.56216372930717       -1.39291956985626        1.54812320400107
H            0.73326741913982        0.72411739793942        1.58174865796616
H            1.76386603757352        1.28062351125563       -0.91836635984261
12
 energy: -22.109424868850 gnorm: 0.004288465963 xtb: 6.7.1 (edcfbbe)
N           -2.52366390186873       -0.16051754369950       -0.50495870074610
C           -1.36596184578317       -0.09525025985318       -0.05534527179561
C           -0.30339354181109       -0.98435692085430        0.57264888548960
C            0.50059728417187        0.32685901211462        0.58895228933996
O           -0.60598921492225        1.03716258905775        0.00333119103384
C            1.74312238984037        0.38668833693752       -0.26420683038266
O            2.62949097149304       -0.41907752801579       -0.23341200799859
H           -2.96267593861331       -1.07274125975969       -0.47839154698072
H            0.09819995409391       -1.76582910801028       -0.06828455898498
H           -0.55962363707731       -1.39579265175819        1.54592024668838
H            0.73735331826864        0.71831692901370        1.58640415417397
H            1.74901095850803        1.26235047212736       -0.94282325493708
12
 energy: -22.109483108758 gnorm: 0.007328850393 xtb: 6.7.1 (edcfbbe)
N           -2.52363115467212       -0.15204220026489       -0.50366717763726
C           -1.36714294404428       -0.08843686938938       -0.04931696826381
C           -0.30178766132848       -0.98587650494304        0.56803914302119
C            0.50107115924818        0.32772582849061        0.59419405727485
O           -0.61051397728176        1.04205444172676        0.02410234693103
C            1.73830066773032        0.38593908883593       -0.26529954209046
O            2.65396464768915       -0.38691770385018       -0.18492440537158
H           -2.96068456986170       -1.06579282051446       -0.49138922303461
H            0.09791698954433       -1.76287631055508       -0.07961107149953
H           -0.55432255206852       -1.40366492619851        1.53939177261897
H            0.74552694422798        0.70659699945571        1.59399039491864
H            1.71776924711688        1.22110304450653       -0.99567473196741
12
 energy: -22.109518854251 gnorm: 0.005077026519 xtb: 6.7.1 (edcfbbe)
N           -2.52747415076375       -0.15032225752216       -0.50111194956430
C           -1.37011510610837       -0.08095504665275       -0.04611964693771
C           -0.30196811020713       -0.98389213967143        0.56310575816659
C            0.49849789657947        0.33222567092744        0.59541721030543
O           -0.61671577531091        1.04681855500132        0.03406013767541
C            1.73465346755935        0.38476226383027       -0.26533554582068
O            2.65386947691613       -0.37595604492636       -0.16378512514475
H           -2.94881761433912       -1.07195913008783       -0.48968268962860
H            0.09703830016211       -1.75520139946159       -0.09278993320542
H           -0.54958540899452       -1.40803073124229        1.53288822963419
H            0.74697497030362        0.70458460647009        1.59593783624529
H            1.72010885050312        1.19573772063528       -1.01274968682543
12
 energy: -22.109568185142 gnorm: 0.007987431076 xtb: 6.7.1 (edcfbbe)
N           -2.52631512863603       -0.14326372119131       -0.49926747938743
C           -1.36941375248149       -0.07657604880250       -0.04342978069404
C           -0.30208656709565       -0.98479161923771        0.55823187801728
C            0.49994752103427        0.33121383936014        0.60009178050874
O           -0.61518602078559        1.05026968922687        0.04591219198739
C            1.73371174299995        0.38454884178527       -0.26378950853596
O            2.67759377599555       -0.34576127270122       -0.12666847725576
H           -2.94582535906124       -1.06573718928068       -0.49377479828025
H            0.09406516598615       -1.75299614321985       -0.10294081988167
H           -0.54974700409137       -1.41355143418855        1.52613570138574
H            0.74971601489738        0.69302761464726        1.60412987204129
H            1.69000640753807        1.16142951090228       -1.05479596500530
12
 energy: -22.109615100098 gnorm: 0.003789783346 xtb: 6.7.1 (edcfbbe)
N           -2.52567142834086       -0.14299549267360       -0.49861335566538
C           -1.36750432099881       -0.07956119697560       -0.04664068304861
C           -0.30369336423873       -0.98510316525856        0.55802291871254
C            0.50140391778082        0.32828346043925        0.59920429824322
O           -0.60886325357971        1.04818179378384        0.03730354899568
C            1.73760220661913        0.38482763683104       -0.26187587870079
O            2.68240511356887       -0.34298620670579       -0.13397050536270
H           -2.94812318680918       -1.06392663979439       -0.48620244199532
H            0.09153338199230       -1.75512224759406       -0.10087950077248
H           -0.55470323219917       -1.41217779736022        1.52591528490212
H            0.74539108408245        0.69214000169323        1.60420744491681
H            1.68668987842287        1.16625192091486       -1.04663653532508
12
 energy: -22.109657289175 gnorm: 0.006075959582 xtb: 6.7.1 (edcfbbe)
N           -2.52747396243928       -0.13704392236771       -0.49452563094523
C           -1.36696956210886       -0.07704392507964       -0.04694338537845
C           -0.30539675031137       -0.98555369090580        0.55255001866042
C            0.50269486173498        0.32631649865990        0.60032892898846
O           -0.60446629649890        1.04975612297789        0.03800519835559
C            1.73956666253370        0.38386857726450       -0.25984711345118
O            2.70419212756427       -0.31489603000203       -0.10829949238631
H           -2.94675034066728       -1.06006609325131       -0.47935847253387
H            0.08739563850002       -1.75305333800274       -0.11053129040920
H           -0.55656597979681       -1.41753489423498        1.51838588880067
H            0.74316065451233        0.68415904147331        1.60837680078340
H            1.66707974327717        1.13890372076862       -1.06830685558427
12
 energy: -22.109701326388 gnorm: 0.004548403864 xtb: 6.7.1 (edcfbbe)
N           -2.53010245262866       -0.13264777214507       -0.49004566865908
C           -1.36721686396170       -0.07302947166779       -0.04645528412278
C           -0.30628527317673       -0.98495455946508        0.54748780954737
C            0.50320913410298        0.32652709778367        0.60197279265333
O           -0.60227683468737        1.05218692657683        0.03875399623471
C            1.74045912561587        0.38230288428025       -0.25759103524860
O            2.71790144613763       -0.29213245667546       -0.08622554545403
H           -2.94342457480339       -1.05924917585570       -0.47280721693539
H            0.08557264169438       -1.74790673452668       -0.12177318951032
H           -0.55611607717173       -1.42457903474465        1.51036421558547
H            0.74000365953295        0.68024639208943        1.61229778744394
H            1.65474286564577        1.11104797165024       -1.08614406663458
12
 energy: -22.109730300490 gnorm: 0.009111530773 xtb: 6.7.1 (edcfbbe)
N           -2.53182218993555       -0.12475549640685       -0.48428862198458
C           -1.36728072945437       -0.06527595140883       -0.04383834271689
C           -0.30583555022084       -0.98408826827007        0.53950030772310
C            0.50415181935304        0.32813118345667        0.60759246505818
O           -0.60156575866030        1.05761184033607        0.04862591591624
C            1.73943439074453        0.38004117658813       -0.25400671707983
O            2.74102388772760       -0.24929212537545       -0.04077404461177
H           -2.93859456148354       -1.05498530934941       -0.47028353400578
H            0.08477778131752       -1.73820086858150       -0.14123408697706
H           -0.55233461613826       -1.43700460338787        1.49722106715455
H            0.73804009427659        0.67121187022324        1.62195162725777
H            1.62647222877358        1.05441861947585       -1.13063144083389
12
 energy: -22.109808477825 gnorm: 0.002827359595 xtb: 6.7.1 (edcfbbe)
N           -2.53356803502098       -0.12309495509404       -0.48035926261122
C           -1.36811199935100       -0.06192012460721       -0.04274048010932
C           -0.30412309100950       -0.98305022431217        0.53615584994313
C            0.50375798107986        0.33070130024729        0.60942443607294
O           -0.60398593531397        1.05976212608572        0.05076053616876
C            1.73839289388508        0.37809925474545       -0.25234565925229
O            2.74497178855925       -0.23083456155401       -0.02367251481144
H           -2.94000296340937       -1.05345514197294       -0.46774435031989
H            0.08779453068712       -1.73053850810857       -0.15180326988914
H           -0.54630052318274       -1.44506141830898        1.49043051567982
H            0.73529606286309        0.67186187430132        1.62433281195459
H            1.62234608651314        1.02534244587814       -1.14260401792589
12
 energy: -22.109843942784 gnorm: 0.011405610597 xtb: 6.7.1 (edcfbbe)
N           -2.53639410616077       -0.11414144544791       -0.47147792493338
C           -1.36859930568206       -0.05657342249941       -0.04004903485525
C           -0.30169489815656       -0.98348714263801        0.52653777520043
C            0.50461003495115        0.33191979277899        0.61381909006857
O           -0.60414213410544        1.06302956648175        0.05784743994127
C            1.73800315113839        0.37554064341184       -0.24828505599742
O            2.77409219300298       -0.16978695636049        0.02964144883022
H           -2.94634947598293       -1.04269853485305       -0.46362996691394
H            0.08930686461232       -1.71962928893223       -0.17476024773690
H           -0.53717626658904       -1.46096020423400        1.47464264343172
H            0.73191522062951        0.66347972757663        1.63201165834726
H            1.59289551864242        0.95111933201589       -1.18646323048255
12
 energy: -22.109914643051 gnorm: 0.002401193667 xtb: 6.7.1 (edcfbbe)
N           -2.53420034333814       -0.11505764431067       -0.47332676459852
C           -1.36748776288702       -0.06188799935436       -0.04031385890338
C           -0.30039734912210       -0.98539649786210        0.52927011880752
C            0.50507512759293        0.32997524961134        0.61322974686109
O           -0.60267418255111        1.05926136145571        0.05516961865302
C            1.73906512978595        0.37747343064817       -0.24823911160435
O            2.77171822149371       -0.17054855268676        0.01841736802615
H           -2.95487635329082       -1.03770779016389       -0.46823159757447
H            0.09051576702226       -1.72440948503792       -0.16762064340494
H           -0.53724722659119       -1.45711586883395        1.47908419440560
H            0.73299336931234        0.66464481897797        1.63026543000814
H            1.59398239887318        0.95858104485644       -1.17786990577582
12
 energy: -22.109960962810 gnorm: 0.003416370882 xtb: 6.7.1 (edcfbbe)
N           -2.53264113347152       -0.10965250074809       -0.47036811676231
C           -1.36634437855715       -0.06234547885833       -0.03779930016035
C           -0.29730520202429       -0.98702172699076        0.52612436197834
C            0.50602507383318        0.32977187810260        0.61770576502033
O           -0.60172616023205        1.05922343698446        0.06190699605828
C            1.73864853674063        0.37791920063680       -0.24545762301827
O            2.78675317818453       -0.12774316890614        0.04340766008061
H           -2.96377144629684       -1.02651091927023       -0.47410226439155
H            0.09327728145123       -1.72068939939875       -0.17614282119610
H           -0.53212477364365       -1.46408037321654        1.47341032332649
H            0.73287705614242        0.65924916192914        1.63647976048288
H            1.57279876417349        0.90969195703584       -1.20533014651831
12
 energy: -22.109982390570 gnorm: 0.001374629283 xtb: 6.7.1 (edcfbbe)
N           -2.53297208490162       -0.10852027942872       -0.47025044885898
C           -1.36682093183036       -0.06165346110990       -0.03728966347641
C           -0.29783448863176       -0.98726308236771        0.52572129815637
C            0.50589813359502        0.32927966397691        0.61749504233820
O           -0.60223129669680        1.05977550760456        0.06463300058026
C            1.73768388922975        0.37667902177906       -0.24688800621975
O            2.78804677143584       -0.12096318381933        0.04432753200119
H           -2.96222673579998       -1.02645767373264       -0.47548867218968
H            0.09240465868887       -1.72151174911440       -0.17641025888660
H           -0.53339784861799       -1.46409047640394        1.47352885383850
H            0.73494705963018        0.65794391490284        1.63617940765399
H            1.57296967019882        0.90459386501326       -1.20572349003703
12
 energy: -22.109993650673 gnorm: 0.003801332125 xtb: 6.7.1 (edcfbbe)
N           -2.53250560696851       -0.10437612188417       -0.47093788303737
C           -1.36710285145410       -0.05862921762752       -0.03548258928827
C           -0.29811233029323       -0.98712810647688        0.52357580382083
C            0.50589313271275        0.32899285836036        0.62031368920680
O           -0.60340044125636        1.06264711062498        0.07598438090472
C            1.73615513066933        0.38106998508026       -0.24640539994736
O            2.79224294739047       -0.10069814279235        0.04821422070271
H           -2.95610218904121       -1.02543636844897       -0.48160018097972
H            0.09161472488955       -1.72164710419107       -0.17891491371558
H           -0.53626589373366       -1.46487700897547        1.47131127142256
H            0.74011733017302        0.65215731093360        1.63986198917507
H            1.56393284321193        0.87573687269721       -1.21608579336434
12
 energy: -22.110017415003 gnorm: 0.002893571654 xtb: 6.7.1 (edcfbbe)
N           -2.53230502647178       -0.10212248526589       -0.47134854032315
C           -1.36729601047310       -0.05717541730269       -0.03437708967463
C           -0.29864369601913       -0.98733079267720        0.52257469931733
C            0.50608861976421        0.32809476467788        0.62177784348014
O           -0.60332898041889        1.06353218696374        0.08076634816541
C            1.73394039064390        0.37790933328150       -0.24866345446738
O            2.79649469919263       -0.08703368616997        0.05325353192209
H           -2.95382622356178       -1.02424813705122       -0.48432995740524
H            0.09019294645607       -1.72224520653681       -0.17988138508331
H           -0.53745040636867       -1.46485827149105        1.47027198425275
H            0.74344138228201        0.64875829985025        1.64149514661324
H            1.55915910127453        0.86453147902146       -1.22170453189720
12
 energy: -22.110048731214 gnorm: 0.004514848062 xtb: 6.7.1 (edcfbbe)
N           -2.53024856892117       -0.09695557857792       -0.47276107348729
C           -1.36639671919334       -0.05360991098668       -0.03194876034322
C           -0.29865887140175       -0.98722901708420        0.52043638036024
C            0.50710576970982        0.32716923743858        0.62702244826915
O           -0.60277212218941        1.06627274758800        0.09250043910293
C            1.72972609192056        0.37427455565479       -0.25066670074867
O            2.80439856742873       -0.05737095475335        0.06472085919460
H           -2.94887119166512       -1.02036487047211       -0.49183150820842
H            0.08900761510418       -1.72108765656666       -0.18331782487639
H           -0.53840959884477       -1.46628626532183        1.46676240716314
H            0.74938202430600        0.64098715754648        1.64754215966619
H            1.54220380004625        0.83201262283490       -1.23862423119220
12
 energy: -22.110064371289 gnorm: 0.004998700467 xtb: 6.7.1 (edcfbbe)
N           -2.52773844207661       -0.09356102502172       -0.47428122811642
C           -1.36504811393565       -0.05091322637810       -0.03018459075993
C           -0.29796900119465       -0.98658383579981        0.51931490132974
C            0.50813095011674        0.32748949098038        0.63183617032685
O           -0.60247403144760        1.06879167715521        0.10153847548624
C            1.72686079872291        0.37284847323173       -0.25076143249212
O            2.80811620955965       -0.03774556488886        0.07101599643853
H           -2.94529739611972       -1.01725300880076       -0.49868696616925
H            0.08967668415797       -1.71855789967001       -0.18612511172058
H           -0.53801166577386       -1.46787153324568        1.46407556846419
H            0.75294919791341        0.63580793809483        1.65305926914895
H            1.52727160637739        0.80536058164277       -1.25096645703616
12
 energy: -22.110079617595 gnorm: 0.002156635023 xtb: 6.7.1 (edcfbbe)
N           -2.52546989714301       -0.09282185899381       -0.47574720332114
C           -1.36369346553576       -0.05000143439378       -0.02964470808938
C           -0.29714468365386       -0.98591709862331        0.51979420179943
C            0.50896230108755        0.32836122797142        0.63460828187224
O           -0.60226548708377        1.06998529383215        0.10504814201078
C            1.72593415833942        0.37292756963881       -0.24977746024975
O            2.80759945417354       -0.03235035337256        0.07027136906512
H           -2.94447134899869       -1.01550050715579       -0.50293950613526
H            0.09133465815654       -1.71620465545028       -0.18686281922269
H           -0.53691882205915       -1.46891910585511        1.46344960879091
H            0.75362680094645        0.63449359923552        1.65599331590187
H            1.51897312807073        0.79375939046676       -1.25435862752209
12
 energy: -22.110092865117 gnorm: 0.001825170697 xtb: 6.7.1 (edcfbbe)
N           -2.52329468060756       -0.08991591890266       -0.47712381484509
C           -1.36268099027663       -0.04827759546169       -0.02825411225767
C           -0.29693453426770       -0.98609013141515        0.51967950750714
C            0.50999147011623        0.32794823160769        0.63792645071893
O           -0.60194808283863        1.07136866972785        0.11186309372246
C            1.72440026970602        0.37231044131189       -0.24990349903753
O            2.81202845138008       -0.01441822905119        0.07244542702249
H           -2.94317251878928       -1.01196112562920       -0.50921262276178
H            0.09161677031923       -1.71500681005972       -0.18856872800981
H           -0.53747814684011       -1.47108436175905        1.46229073133438
H            0.75652946886918        0.63133270207936        1.65935548670329
H            1.50740931952916        0.77160619485185       -1.26066332519675
12
 energy: -22.110108406225 gnorm: 0.001968713877 xtb: 6.7.1 (edcfbbe)
N           -2.51975515739385       -0.08330403152003       -0.47902516195417
C           -1.36116083371187       -0.04550428860640       -0.02544408959509
C           -0.29656083457196       -0.98738427221471        0.51899763212989
C            0.51180883883681        0.32577475091792        0.64415257951356
O           -0.60043290383648        1.07264607294898        0.12325084654586
C            1.72133837578540        0.37101088057890       -0.25062500746123
O            2.82199989088278        0.02639986796243        0.07717385734344
H           -2.94312243285445       -1.00322393039844       -0.52011211037802
H            0.09166360683164       -1.71374769819260       -0.19252468454602
H           -0.53839967702236       -1.47618541795513        1.45965862047906
H            0.76162530552006        0.62546120998454        1.66568390125958
H            1.48746261783426        0.72586892379454       -1.27135178843680
12
 energy: -22.110108635128 gnorm: 0.001728262466 xtb: 6.7.1 (edcfbbe)
N           -2.52091976751759       -0.08398883916812       -0.47772499137709
C           -1.36161805225877       -0.04634756745191       -0.02599338905772
C           -0.29613953878490       -0.98723651067920        0.51857153139225
C            0.51120884009593        0.32603083385662        0.64306491264339
O           -0.60070981283125        1.07203451515731        0.12046695082649
C            1.72196621908321        0.37129854216100       -0.25015229891388
O            2.81992024884518        0.02275492162058        0.07715587267813
H           -2.94487539278621       -1.00362842895859       -0.51714443974023