      -----------------------------------------------------------      
     |                   =====================                   |     
     |                           x T B                           |     
     |                   =====================                   |     
     |                         S. Grimme                         |     
     |          Mulliken Center for Theoretical Chemistry        |     
     |                    University of Bonn                     |     
      -----------------------------------------------------------      

   * xtb version 6.5.1 (fef0646) compiled by 'conda@b96dff2e9fd6' on 2023-01-04

   xtb is free software: you can redistribute it and/or modify it under
   the terms of the GNU Lesser General Public License as published by
   the Free Software Foundation, either version 3 of the License, or
   (at your option) any later version.
   
   xtb is distributed in the hope that it will be useful,
   but WITHOUT ANY WARRANTY; without even the implied warranty of
   MERCHANTABILITY or FITNESS FOR A PARTICULAR PURPOSE.  See the
   GNU Lesser General Public License for more details.
   
   Cite this work as:
   * C. Bannwarth, E. Caldeweyher, S. Ehlert, A. Hansen, P. Pracht,
     J. Seibert, S. Spicher, S. Grimme, WIREs Comput. Mol. Sci., 2020, 11,
     e01493. DOI: 10.1002/wcms.1493
   
   for GFN2-xTB:
   * C. Bannwarth, S. Ehlert and S. Grimme., J. Chem. Theory Comput., 2019,
     15, 1652-1671. DOI: 10.1021/acs.jctc.8b01176
   for GFN1-xTB:
   * S. Grimme, C. Bannwarth, P. Shushkov, J. Chem. Theory Comput., 2017,
     13, 1989-2009. DOI: 10.1021/acs.jctc.7b00118
   for GFN0-xTB:
   * P. Pracht, E. Caldeweyher, S. Ehlert, S. Grimme, ChemRxiv, 2019, preprint.
     DOI: 10.26434/chemrxiv.8326202.v1
   for GFN-FF:
   * S. Spicher and S. Grimme, Angew. Chem. Int. Ed., 2020, 59, 15665-15673.
     DOI: 10.1002/anie.202004239
   
   for ALPB and GBSA implicit solvation:
   * S. Ehlert, M. Stahn, S. Spicher, S. Grimme, J. Chem. Theory Comput.,
     2021, 17, 4250-4261. DOI: 10.1021/acs.jctc.1c00471
   
   for DFT-D4:
   * E. Caldeweyher, C. Bannwarth and S. Grimme, J. Chem. Phys., 2017,
     147, 034112. DOI: 10.1063/1.4993215
   * E. Caldeweyher, S. Ehlert, A. Hansen, H. Neugebauer, S. Spicher,
     C. Bannwarth and S. Grimme, J. Chem. Phys., 2019, 150, 154122.
     DOI: 10.1063/1.5090222
   * E. Caldeweyher, J.-M. Mewes, S. Ehlert and S. Grimme, Phys. Chem. Chem. Phys.
     2020, 22, 8499-8512. DOI: 10.1039/D0CP00502A
   
   for sTDA-xTB:
   * S. Grimme and C. Bannwarth, J. Chem. Phys., 2016, 145, 054103.
     DOI: 10.1063/1.4959605
   
   in the mass-spec context:
   * V. Asgeirsson, C. Bauer and S. Grimme, Chem. Sci., 2017, 8, 4879.
     DOI: 10.1039/c7sc00601b
   * J. Koopman and S. Grimme, ACS Omega 2019, 4, 12, 15120-15133.
     DOI: 10.1021/acsomega.9b02011
   
   for metadynamics refer to:
   * S. Grimme, J. Chem. Theory Comput., 2019, 155, 2847-2862
     DOI: 10.1021/acs.jctc.9b00143
   
   for SPH calculations refer to:
   * S. Spicher and S. Grimme, J. Chem. Theory Comput., 2021, 17, 1701-1714
     DOI: 10.1021/acs.jctc.0c01306
   
   with help from (in alphabetical order)
   P. Atkinson, C. Bannwarth, F. Bohle, G. Brandenburg, E. Caldeweyher
   M. Checinski, S. Dohm, S. Ehlert, S. Ehrlich, I. Gerasimov, C. Hölzer
   A. Katbashev, J. Koopman, C. Lavigne, S. Lehtola, F. März, M. Müller,
   F. Musil, H. Neugebauer, J. Pisarek, C. Plett, P. Pracht, F. Pultar,
   J. Seibert, P. Shushkov, S. Spicher, M. Stahn, M. Steiner, T. Strunk,
   J. Stückrath, T. Rose, and J. Unsleber
   
 * started run on 2024/06/14 at 03:00:52.379     

           -------------------------------------------------
          |                Calculation Setup                |
           -------------------------------------------------

          program call               : xtb crest_best.xyz --opt normal -c 0 --iterations 4000
          coordinate file            : crest_best.xyz
          omp threads                :                     8

   ID    Z sym.   atoms
    1    6 C      1, 3-14, 16-22, 24-29, 31
    2   16 S      2
    3    7 N      15, 23
    4   14 Si     30
    5    1 H      32-49

           -------------------------------------------------
          |                 G F N 2 - x T B                 |
           -------------------------------------------------

        Reference                      10.1021/acs.jctc.8b01176
      * Hamiltonian:
        H0-scaling (s, p, d)           1.850000    2.230000    2.230000
        zeta-weighting                 0.500000
      * Dispersion:
        s8                             2.700000
        a1                             0.520000
        a2                             5.000000
        s9                             5.000000
      * Repulsion:
        kExp                           1.500000    1.000000
        rExp                           1.000000
      * Coulomb:
        alpha                          2.000000
        third order                    shell-resolved
        anisotropic                    true
        a3                             3.000000
        a5                             4.000000
        cn-shift                       1.200000
        cn-exp                         4.000000
        max-rad                        5.000000


          ...................................................
          :                      SETUP                      :
          :.................................................:
          :  # basis functions                 154          :
          :  # atomic orbitals                 152          :
          :  # shells                           82          :
          :  # electrons                       146          :
          :  max. iterations                  4000          :
          :  Hamiltonian                  GFN2-xTB          :
          :  restarted?                      false          :
          :  GBSA solvation                  false          :
          :  PC potential                    false          :
          :  electronic temp.          300.0000000     K    :
          :  accuracy                    1.0000000          :
          :  -> integral cutoff          0.2500000E+02      :
          :  -> integral neglect         0.1000000E-07      :
          :  -> SCF convergence          0.1000000E-05 Eh   :
          :  -> wf. convergence          0.1000000E-03 e    :
          :  Broyden damping             0.4000000          :
          ...................................................

 iter      E             dE          RMSdq      gap      omega  full diag
   1    -78.5670195 -0.785670E+02  0.432E+00    1.60       0.0  T
   2    -78.6847394 -0.117720E+00  0.296E+00    0.81       1.0  T
   3    -78.7445516 -0.598122E-01  0.202E+00    1.60       1.0  T
   4    -78.8294265 -0.848750E-01  0.107E+00    1.30       1.0  T
   5    -78.8559129 -0.264864E-01  0.543E-01    1.40       1.0  T
   6    -78.8651592 -0.924624E-02  0.284E-01    1.39       1.0  T
   7    -78.8660796 -0.920376E-03  0.162E-01    1.37       1.0  T
   8    -78.8670411 -0.961526E-03  0.592E-02    1.37       1.0  T
   9    -78.8670473 -0.618325E-05  0.355E-02    1.38       1.0  T
  10    -78.8670816 -0.343028E-04  0.203E-02    1.37       1.0  T
  11    -78.8670935 -0.119747E-04  0.838E-03    1.37       1.7  T
  12    -78.8670949 -0.140093E-05  0.313E-03    1.37       4.6  T
  13    -78.8670950 -0.463954E-07  0.194E-03    1.37       7.4  T
  14    -78.8670951 -0.891107E-07  0.732E-04    1.37      19.5  T
  15    -78.8670951 -0.423296E-08  0.452E-04    1.37      31.6  T

   *** convergence criteria satisfied after 15 iterations ***

         #    Occupation            Energy/Eh            Energy/eV
      -------------------------------------------------------------
         1        2.0000           -0.7326870             -19.9374
       ...           ...                  ...                  ...
        67        2.0000           -0.3824130             -10.4060
        68        2.0000           -0.3736370             -10.1672
        69        2.0000           -0.3713695             -10.1055
        70        2.0000           -0.3639547              -9.9037
        71        2.0000           -0.3472440              -9.4490
        72        2.0000           -0.3294054              -8.9636
        73        2.0000           -0.3160688              -8.6007 (HOMO)
        74                         -0.2656337              -7.2283 (LUMO)
        75                         -0.2619952              -7.1293
        76                         -0.2422577              -6.5922
        77                         -0.2334852              -6.3535
        78                         -0.2131860              -5.8011
       ...                                ...                  ...
       152                          0.7454948              20.2859
      -------------------------------------------------------------
                  HL-Gap            0.0504351 Eh            1.3724 eV
             Fermi-level           -0.2908625 Eh           -7.9148 eV

 SCC (total)                   0 d,  0 h,  0 min,  0.484 sec
 SCC setup                      ...        0 min,  0.010 sec (  2.019%)
 Dispersion                     ...        0 min,  0.002 sec (  0.321%)
 classical contributions        ...        0 min,  0.003 sec (  0.630%)
 integral evaluation            ...        0 min,  0.011 sec (  2.212%)
 iterations                     ...        0 min,  0.440 sec ( 90.961%)
 molecular gradient             ...        0 min,  0.017 sec (  3.436%)
 printout                       ...        0 min,  0.002 sec (  0.417%)

         :::::::::::::::::::::::::::::::::::::::::::::::::::::
         ::                     SUMMARY                     ::
         :::::::::::::::::::::::::::::::::::::::::::::::::::::
         :: total energy             -77.597323430682 Eh    ::
         :: gradient norm              0.134948329306 Eh/a0 ::
         :: HOMO-LUMO gap              1.372407717512 eV    ::
         ::.................................................::
         :: SCC energy               -78.867095078412 Eh    ::
         :: -> isotropic ES            0.027122814650 Eh    ::
         :: -> anisotropic ES          0.012817612012 Eh    ::
         :: -> anisotropic XC          0.034943669275 Eh    ::
         :: -> dispersion             -0.065711211399 Eh    ::
         :: repulsion energy           1.268881553919 Eh    ::
         :: add. restraining           0.000000000000 Eh    ::
         :: total charge              -0.000000000000 e     ::
         :::::::::::::::::::::::::::::::::::::::::::::::::::::

      ----------------------------------------------------------- 
     |                   =====================                   |
     |                        A N C O P T                        |
     |                   =====================                   |
     |               Approximate Normal Coordinate               |
     |                Rational Function Optimizer                |
      ----------------------------------------------------------- 

          ...................................................
          :                      SETUP                      :
          :.................................................:
          :   optimization level            normal          :
          :   max. optcycles                   200          :
          :   ANC micro-cycles                  20          :
          :   degrees of freedom               141          :
          :.................................................:
          :   RF solver                   davidson          :
          :   write xtbopt.log                true          :
          :   linear?                        false          :
          :   energy convergence         0.5000000E-05 Eh   :
          :   grad. convergence          0.1000000E-02 Eh/α :
          :   maximium RF displ.         1.0000000          :
          :   Hlow (freq-cutoff)         0.1000000E-01      :
          :   Hmax (freq-cutoff)         5.0000000          :
          :   S6 in model hess.         20.0000000          :
          ...................................................

generating ANC from model Hessian ...
Using Lindh-Hessian (1995)
 Shifting diagonal of input Hessian by    9.9125921500831434E-003
 Lowest  eigenvalues of input Hessian
    0.000000    0.000000    0.000000    0.000000    0.000000    0.000000
    0.010000    0.010134    0.010368    0.010486    0.011371    0.012179
    0.013203    0.013403    0.014541    0.016826    0.017259    0.018491
 Highest eigenvalues
    1.925534    1.994080    2.005693    2.018849    2.047885    2.060569


........................................................................
.............................. CYCLE    1 ..............................
........................................................................
   1    -78.8670951 -0.788671E+02  0.219E-04    1.37       0.0  T
   2    -78.8670951 -0.126732E-09  0.156E-04    1.37      91.5  T
   3    -78.8670951 -0.638494E-09  0.999E-05    1.37     142.9  T
     SCC iter.                  ...        0 min,  0.149 sec
     gradient                   ...        0 min,  0.016 sec
 * total energy  :   -77.5973234 Eh     change       -0.3516774E-08 Eh
   gradient norm :     0.1349511 Eh/α   predicted     0.0000000E+00 (-100.00%)
   displ. norm   :     0.4239327 α      lambda       -0.3509174E-01
   maximum displ.:     0.1469616 α      in ANC's #62, #47, #24, ...

........................................................................
.............................. CYCLE    2 ..............................
........................................................................
   1    -78.9175793 -0.789176E+02  0.414E-01    1.35       0.0  T
   2    -78.9171638  0.415570E-03  0.283E-01    1.41       1.0  T
   3    -78.9163191  0.844715E-03  0.250E-01    1.36       1.0  T
   4    -78.9185627 -0.224368E-02  0.694E-02    1.38       1.0  T
   5    -78.9186824 -0.119660E-03  0.352E-02    1.39       1.0  T
   6    -78.9186944 -0.120093E-04  0.221E-02    1.38       1.0  T
   7    -78.9187029 -0.849830E-05  0.888E-03    1.38       1.6  T
   8    -78.9187051 -0.219611E-05  0.347E-03    1.38       4.1  T
   9    -78.9187053 -0.199969E-06  0.163E-03    1.38       8.8  T
  10    -78.9187054 -0.993161E-07  0.704E-04    1.38      20.3  T
  11    -78.9187054 -0.185190E-07  0.266E-04    1.38      53.6  T
     SCC iter.                  ...        0 min,  0.260 sec
     gradient                   ...        0 min,  0.016 sec
 * total energy  :   -77.6221158 Eh     change       -0.2479234E-01 Eh
   gradient norm :     0.0633453 Eh/α   predicted    -0.2071360E-01 ( -16.45%)
   displ. norm   :     0.4049568 α      lambda       -0.1324187E-01
   maximum displ.:     0.1884197 α      in ANC's #24, #31, #26, ...

........................................................................
.............................. CYCLE    3 ..............................
........................................................................
   1    -78.9517310 -0.789517E+02  0.350E-01    1.36       0.0  T
   2    -78.9516311  0.999428E-04  0.232E-01    1.40       1.0  T
   3    -78.9505438  0.108728E-02  0.208E-01    1.36       1.0  T
   4    -78.9522476 -0.170383E-02  0.586E-02    1.38       1.0  T
   5    -78.9523203 -0.727324E-04  0.325E-02    1.39       1.0  T
   6    -78.9523319 -0.115873E-04  0.191E-02    1.38       1.0  T
   7    -78.9523405 -0.861042E-05  0.663E-03    1.39       2.2  T
   8    -78.9523419 -0.136723E-05  0.262E-03    1.38       5.5  T
   9    -78.9523420 -0.106217E-06  0.130E-03    1.38      11.0  T
  10    -78.9523421 -0.682481E-07  0.531E-04    1.38      26.9  T
  11    -78.9523421 -0.959125E-08  0.205E-04    1.38      69.5  T
     SCC iter.                  ...        0 min,  0.275 sec
     gradient                   ...        0 min,  0.016 sec
 * total energy  :   -77.6302776 Eh     change       -0.8161795E-02 Eh
   gradient norm :     0.0217690 Eh/α   predicted    -0.7706707E-02 (  -5.58%)
   displ. norm   :     0.3032330 α      lambda       -0.2731573E-02
   maximum displ.:     0.1272619 α      in ANC's #8, #24, #18, ...

........................................................................
.............................. CYCLE    4 ..............................
........................................................................
   1    -78.9547295 -0.789547E+02  0.205E-01    1.37       0.0  T
   2    -78.9547187  0.107221E-04  0.132E-01    1.38       1.0  T
   3    -78.9542013  0.517471E-03  0.110E-01    1.36       1.0  T
   4    -78.9547893 -0.588056E-03  0.243E-02    1.37       1.0  T
   5    -78.9547932 -0.382455E-05  0.169E-02    1.38       1.0  T
   6    -78.9547961 -0.290173E-05  0.792E-03    1.37       1.8  T
   7    -78.9547986 -0.253584E-05  0.255E-03    1.37       5.6  T
   8    -78.9547987 -0.103213E-06  0.136E-03    1.37      10.5  T
   9    -78.9547987 -0.458616E-07  0.491E-04    1.37      29.1  T
  10    -78.9547987 -0.538896E-08  0.251E-04    1.37      56.9  T
     SCC iter.                  ...        0 min,  0.294 sec
     gradient                   ...        0 min,  0.016 sec
 * total energy  :   -77.6322051 Eh     change       -0.1927489E-02 Eh
   gradient norm :     0.0162559 Eh/α   predicted    -0.1491472E-02 ( -22.62%)
   displ. norm   :     0.3203550 α      lambda       -0.1458001E-02
   maximum displ.:     0.1672687 α      in ANC's #8, #5, #3, ...

........................................................................
.............................. CYCLE    5 ..............................
........................................................................
   1    -78.9538740 -0.789539E+02  0.153E-01    1.36       0.0  T
   2    -78.9538722  0.185044E-05  0.952E-02    1.36       1.0  T
   3    -78.9536264  0.245803E-03  0.701E-02    1.35       1.0  T
   4    -78.9538932 -0.266795E-03  0.140E-02    1.36       1.0  T
   5    -78.9538949 -0.171187E-05  0.993E-03    1.36       1.4  T
   6    -78.9538956 -0.695279E-06  0.489E-03    1.36       2.9  T
   7    -78.9538965 -0.880785E-06  0.161E-03    1.36       8.9  T
   8    -78.9538965 -0.452105E-07  0.858E-04    1.36      16.7  T
   9    -78.9538965 -0.173636E-07  0.337E-04    1.36      42.3  T
     SCC iter.                  ...        0 min,  0.235 sec
     gradient                   ...        0 min,  0.016 sec
 * total energy  :   -77.6332023 Eh     change       -0.9972584E-03 Eh
   gradient norm :     0.0103208 Eh/α   predicted    -0.8038237E-03 ( -19.40%)
   displ. norm   :     0.2982596 α      lambda       -0.7060306E-03
   maximum displ.:     0.1597160 α      in ANC's #8, #5, #3, ...

........................................................................
.............................. CYCLE    6 ..............................
........................................................................
   1    -78.9534101 -0.789534E+02  0.984E-02    1.36       0.0  T
   2    -78.9534115 -0.138163E-05  0.584E-02    1.36       1.0  T
   3    -78.9533701  0.413197E-04  0.290E-02    1.36       1.0  T
   4    -78.9534141 -0.439548E-04  0.403E-03    1.36       3.5  T
   5    -78.9534146 -0.510470E-06  0.189E-03    1.36       7.6  T
   6    -78.9534146 -0.348155E-07  0.125E-03    1.36      11.4  T
   7    -78.9534147 -0.266585E-07  0.539E-04    1.36      26.5  T
   8    -78.9534147 -0.737158E-08  0.302E-04    1.36      47.2  T
     SCC iter.                  ...        0 min,  0.253 sec
     gradient                   ...        0 min,  0.089 sec
 * total energy  :   -77.6337319 Eh     change       -0.5295782E-03 Eh
   gradient norm :     0.0082872 Eh/α   predicted    -0.3844516E-03 ( -27.40%)
   displ. norm   :     0.3689791 α      lambda       -0.6220970E-03
   maximum displ.:     0.1822671 α      in ANC's #8, #5, #3, ...

........................................................................
.............................. CYCLE    7 ..............................
........................................................................
   1    -78.9540561 -0.789541E+02  0.104E-01    1.36       0.0  T
   2    -78.9540584 -0.233793E-05  0.622E-02    1.36       1.0  T
   3    -78.9540446  0.137490E-04  0.174E-02    1.36       1.0  T
   4    -78.9540591 -0.144498E-04  0.591E-03    1.36       2.4  T
   5    -78.9540597 -0.618303E-06  0.365E-03    1.36       3.9  T
   6    -78.9540596  0.629178E-07  0.242E-03    1.36       5.9  T
   7    -78.9540599 -0.246996E-06  0.699E-04    1.36      20.4  T
   8    -78.9540599 -0.849003E-08  0.394E-04    1.36      36.3  T
     SCC iter.                  ...        0 min,  0.253 sec
     gradient                   ...        0 min,  0.016 sec
 * total energy  :   -77.6342000 Eh     change       -0.4681535E-03 Eh
   gradient norm :     0.0076185 Eh/α   predicted    -0.3534064E-03 ( -24.51%)
   displ. norm   :     0.3857696 α      lambda       -0.4803950E-03
   maximum displ.:     0.1708082 α      in ANC's #5, #8, #3, ...

........................................................................
.............................. CYCLE    8 ..............................
........................................................................
   1    -78.9551742 -0.789552E+02  0.945E-02    1.37       0.0  T
   2    -78.9551760 -0.177244E-05  0.567E-02    1.37       1.0  T
   3    -78.9551611  0.149043E-04  0.177E-02    1.37       1.0  T
   4    -78.9551768 -0.157647E-04  0.573E-03    1.37       2.5  T
   5    -78.9551773 -0.465710E-06  0.370E-03    1.37       3.9  T
   6    -78.9551773  0.336886E-07  0.213E-03    1.37       6.7  T
   7    -78.9551775 -0.187832E-06  0.688E-04    1.37      20.8  T
   8    -78.9551775 -0.639368E-08  0.393E-04    1.37      36.4  T
     SCC iter.                  ...        0 min,  0.255 sec
     gradient                   ...        0 min,  0.016 sec
 * total energy  :   -77.6345581 Eh     change       -0.3580479E-03 Eh
   gradient norm :     0.0064806 Eh/α   predicted    -0.2759620E-03 ( -22.93%)
   displ. norm   :     0.3620667 α      lambda       -0.3242329E-03
   maximum displ.:     0.1578650 α      in ANC's #3, #5, #2, ...

........................................................................
.............................. CYCLE    9 ..............................
........................................................................
   1    -78.9560920 -0.789561E+02  0.813E-02    1.38       0.0  T
   2    -78.9560931 -0.111861E-05  0.481E-02    1.38       1.0  T
   3    -78.9560846  0.849551E-05  0.131E-02    1.38       1.1  T
   4    -78.9560937 -0.908364E-05  0.349E-03    1.38       4.1  T
   5    -78.9560940 -0.250516E-06  0.206E-03    1.38       6.9  T
   6    -78.9560940 -0.186779E-07  0.118E-03    1.38      12.1  T
   7    -78.9560940 -0.434139E-07  0.425E-04    1.38      33.6  T
   8    -78.9560940 -0.117520E-08  0.233E-04    1.38      61.3  T
     SCC iter.                  ...        0 min,  0.284 sec
     gradient                   ...        0 min,  0.030 sec
 * total energy  :   -77.6347965 Eh     change       -0.2384437E-03 Eh
   gradient norm :     0.0046288 Eh/α   predicted    -0.1834075E-03 ( -23.08%)
   displ. norm   :     0.3079836 α      lambda       -0.2240742E-03
   maximum displ.:     0.1392950 α      in ANC's #3, #2, #5, ...

........................................................................
.............................. CYCLE   10 ..............................
........................................................................
   1    -78.9575527 -0.789576E+02  0.658E-02    1.39       0.0  T
   2    -78.9575534 -0.668900E-06  0.388E-02    1.39       1.0  T
   3    -78.9575380  0.154123E-04  0.173E-02    1.39       1.0  T
   4    -78.9575546 -0.165688E-04  0.287E-03    1.39       5.0  T
   5    -78.9575547 -0.178594E-06  0.167E-03    1.39       8.6  T
   6    -78.9575548 -0.402153E-07  0.108E-03    1.39      13.3  T
   7    -78.9575548 -0.435115E-07  0.339E-04    1.39      42.2  T
   8    -78.9575548 -0.979412E-09  0.216E-04    1.39      66.0  T
     SCC iter.                  ...        0 min,  0.268 sec
     gradient                   ...        0 min,  0.015 sec
 * total energy  :   -77.6349547 Eh     change       -0.1582107E-03 Eh
   gradient norm :     0.0059145 Eh/α   predicted    -0.1226653E-03 ( -22.47%)
   displ. norm   :     0.3182664 α      lambda       -0.2080892E-03
   maximum displ.:     0.1520590 α      in ANC's #2, #3, #1, ...

........................................................................
.............................. CYCLE   11 ..............................
........................................................................
   1    -78.9570599 -0.789571E+02  0.702E-02    1.39       0.0  T
   2    -78.9570600 -0.118694E-06  0.419E-02    1.39       1.0  T
   3    -78.9570258  0.342011E-04  0.265E-02    1.39       1.0  T
   4    -78.9570634 -0.376317E-04  0.313E-03    1.39       4.6  T
   5    -78.9570635 -0.970540E-07  0.206E-03    1.39       6.9  T
   6    -78.9570636 -0.574876E-07  0.122E-03    1.39      11.7  T
   7    -78.9570636 -0.450333E-07  0.424E-04    1.39      33.7  T
   8    -78.9570636  0.116955E-10  0.264E-04    1.39      54.2  T
     SCC iter.                  ...        0 min,  0.232 sec
     gradient                   ...        0 min,  0.020 sec
 * total energy  :   -77.6350906 Eh     change       -0.1358228E-03 Eh
   gradient norm :     0.0050760 Eh/α   predicted    -0.1145859E-03 ( -15.64%)
   displ. norm   :     0.2595262 α      lambda       -0.1756209E-03
   maximum displ.:     0.1297971 α      in ANC's #2, #1, #3, ...

........................................................................
.............................. CYCLE   12 ..............................
........................................................................
   1    -78.9580003 -0.789580E+02  0.588E-02    1.39       0.0  T
   2    -78.9579999  0.355329E-06  0.357E-02    1.40       1.0  T
   3    -78.9579684  0.315020E-04  0.257E-02    1.39       1.0  T
   4    -78.9580036 -0.351290E-04  0.281E-03    1.40       5.1  T
   5    -78.9580037 -0.131681E-06  0.191E-03    1.40       7.5  T
   6    -78.9580038 -0.794038E-07  0.104E-03    1.40      13.8  T
   7    -78.9580038 -0.294011E-07  0.402E-04    1.40      35.5  T
   8    -78.9580038 -0.101082E-09  0.273E-04    1.40      52.4  T
     SCC iter.                  ...        0 min,  0.239 sec
     gradient                   ...        0 min,  0.028 sec
 * total energy  :   -77.6352270 Eh     change       -0.1364302E-03 Eh
   gradient norm :     0.0052279 Eh/α   predicted    -0.9372777E-04 ( -31.30%)
   displ. norm   :     0.3058994 α      lambda       -0.1888331E-03
   maximum displ.:     0.1588661 α      in ANC's #2, #1, #3, ...

........................................................................
.............................. CYCLE   13 ..............................
........................................................................
   1    -78.9578414 -0.789578E+02  0.664E-02    1.39       0.0  T
   2    -78.9578405  0.905086E-06  0.405E-02    1.40       1.0  T
   3    -78.9577956  0.449188E-04  0.303E-02    1.39       1.0  T
   4    -78.9578457 -0.501234E-04  0.321E-03    1.40       4.4  T
   5    -78.9578459 -0.215606E-06  0.212E-03    1.40       6.7  T
   6    -78.9578460 -0.128796E-06  0.942E-04    1.40      15.2  T
   7    -78.9578461 -0.211000E-07  0.449E-04    1.40      31.8  T
     SCC iter.                  ...        0 min,  0.225 sec
     gradient                   ...        0 min,  0.017 sec
 * total energy  :   -77.6353709 Eh     change       -0.1439107E-03 Eh
   gradient norm :     0.0043626 Eh/α   predicted    -0.1032535E-03 ( -28.25%)
   displ. norm   :     0.2872498 α      lambda       -0.1384874E-03
   maximum displ.:     0.1537692 α      in ANC's #2, #1, #3, ...

........................................................................
.............................. CYCLE   14 ..............................
........................................................................
   1    -78.9576498 -0.789576E+02  0.596E-02    1.40       0.0  T
   2    -78.9576499 -0.129310E-06  0.358E-02    1.40       1.0  T
   3    -78.9576289  0.210418E-04  0.196E-02    1.39       1.0  T
   4    -78.9576515 -0.225872E-04  0.344E-03    1.40       4.2  T
   5    -78.9576515 -0.565063E-07  0.247E-03    1.40       5.8  T
   6    -78.9576517 -0.139550E-06  0.102E-03    1.40      14.1  T
   7    -78.9576517 -0.230732E-07  0.535E-04    1.40      26.7  T
   8    -78.9576517 -0.652962E-08  0.287E-04    1.40      49.8  T
     SCC iter.                  ...        0 min,  0.226 sec
     gradient                   ...        0 min,  0.020 sec
 * total energy  :   -77.6354733 Eh     change       -0.1024052E-03 Eh
   gradient norm :     0.0032743 Eh/α   predicted    -0.7495865E-04 ( -26.80%)
   displ. norm   :     0.2245998 α      lambda       -0.8476114E-04
   maximum displ.:     0.1258795 α      in ANC's #2, #1, #4, ...

........................................................................
.............................. CYCLE   15 ..............................
........................................................................
   1    -78.9575528 -0.789576E+02  0.441E-02    1.40       0.0  T
   2    -78.9575531 -0.279242E-06  0.266E-02    1.40       1.0  T
   3    -78.9575470  0.614099E-05  0.106E-02    1.40       1.3  T
   4    -78.9575534 -0.643867E-05  0.330E-03    1.40       4.3  T
   5    -78.9575535 -0.868983E-07  0.231E-03    1.40       6.2  T
   6    -78.9575536 -0.109149E-06  0.910E-04    1.40      15.7  T
   7    -78.9575536 -0.225949E-07  0.371E-04    1.40      38.5  T
     SCC iter.                  ...        0 min,  0.206 sec
     gradient                   ...        0 min,  0.016 sec
 * total energy  :   -77.6355390 Eh     change       -0.6564002E-04 Eh
   gradient norm :     0.0026558 Eh/α   predicted    -0.4452322E-04 ( -32.17%)
   displ. norm   :     0.1901314 α      lambda       -0.6720160E-04
   maximum displ.:     0.1135845 α      in ANC's #1, #2, #4, ...

........................................................................
.............................. CYCLE   16 ..............................
........................................................................
   1    -78.9579082 -0.789579E+02  0.367E-02    1.40       0.0  T
   2    -78.9579083 -0.157559E-06  0.225E-02    1.40       1.0  T
   3    -78.9579030  0.531840E-05  0.114E-02    1.40       1.3  T
   4    -78.9579087 -0.566558E-05  0.293E-03    1.40       4.9  T
   5    -78.9579087 -0.939087E-08  0.203E-03    1.40       7.0  T
   6    -78.9579088 -0.849212E-07  0.838E-04    1.40      17.0  T
   7    -78.9579088 -0.219249E-07  0.341E-04    1.40      41.9  T
     SCC iter.                  ...        0 min,  0.215 sec
     gradient                   ...        0 min,  0.018 sec
 * total energy  :   -77.6355925 Eh     change       -0.5357733E-04 Eh
   gradient norm :     0.0025629 Eh/α   predicted    -0.3482057E-04 ( -35.01%)
   displ. norm   :     0.1829736 α      lambda       -0.5890147E-04
   maximum displ.:     0.1140931 α      in ANC's #1, #2, #4, ...

........................................................................
.............................. CYCLE   17 ..............................
........................................................................
   1    -78.9580163 -0.789580E+02  0.360E-02    1.40       0.0  T
   2    -78.9580164 -0.933809E-07  0.222E-02    1.40       1.0  T
   3    -78.9580114  0.491733E-05  0.108E-02    1.40       1.3  T
   4    -78.9580166 -0.520349E-05  0.281E-03    1.40       5.1  T
   5    -78.9580166  0.724732E-08  0.182E-03    1.40       7.9  T
   6    -78.9580167 -0.743671E-07  0.761E-04    1.40      18.8  T
   7    -78.9580167 -0.208000E-07  0.295E-04    1.40      48.5  T
     SCC iter.                  ...        0 min,  0.212 sec
     gradient                   ...        0 min,  0.017 sec
 * total energy  :   -77.6356399 Eh     change       -0.4740885E-04 Eh
   gradient norm :     0.0025674 Eh/α   predicted    -0.3043789E-04 ( -35.80%)
   displ. norm   :     0.1695459 α      lambda       -0.5004861E-04
   maximum displ.:     0.1106227 α      in ANC's #1, #2, #4, ...

........................................................................
.............................. CYCLE   18 ..............................
........................................................................
   1    -78.9582727 -0.789583E+02  0.353E-02    1.40       0.0  T
   2    -78.9582729 -0.138807E-06  0.217E-02    1.40       1.0  T
   3    -78.9582710  0.190483E-05  0.705E-03    1.40       2.0  T
   4    -78.9582729 -0.194922E-05  0.283E-03    1.40       5.0  T
   5    -78.9582730 -0.352624E-07  0.166E-03    1.40       8.6  T
   6    -78.9582730 -0.735579E-07  0.655E-04    1.40      21.8  T
   7    -78.9582731 -0.138988E-07  0.284E-04    1.40      50.3  T
     SCC iter.                  ...        0 min,  0.239 sec
     gradient                   ...        0 min,  0.023 sec
 * total energy  :   -77.6356811 Eh     change       -0.4120415E-04 Eh
   gradient norm :     0.0024313 Eh/α   predicted    -0.2574687E-04 ( -37.51%)
   displ. norm   :     0.1649593 α      lambda       -0.4700126E-04
   maximum displ.:     0.1112605 α      in ANC's #1, #2, #6, ...

........................................................................
.............................. CYCLE   19 ..............................
........................................................................
   1    -78.9582938 -0.789583E+02  0.359E-02    1.40       0.0  T
   2    -78.9582939 -0.126447E-06  0.221E-02    1.40       1.0  T
   3    -78.9582910  0.296490E-05  0.816E-03    1.40       1.8  T
   4    -78.9582940 -0.305529E-05  0.285E-03    1.40       5.0  T
   5    -78.9582940 -0.130767E-07  0.175E-03    1.40       8.2  T
   6    -78.9582942 -0.114359E-06  0.703E-04    1.40      20.3  T
   7    -78.9582942 -0.155181E-07  0.295E-04    1.40      48.3  T
     SCC iter.                  ...        0 min,  0.251 sec
     gradient                   ...        0 min,  0.017 sec
 * total energy  :   -77.6357209 Eh     change       -0.3980401E-04 Eh
   gradient norm :     0.0021306 Eh/α   predicted    -0.2414317E-04 ( -39.34%)
   displ. norm   :     0.1794582 α      lambda       -0.5081721E-04
   maximum displ.:     0.1231179 α      in ANC's #1, #2, #6, ...

........................................................................
.............................. CYCLE   20 ..............................
........................................................................
   1    -78.9583711 -0.789584E+02  0.401E-02    1.40       0.0  T
   2    -78.9583712 -0.851675E-07  0.246E-02    1.40       1.0  T
   3    -78.9583638  0.735735E-05  0.127E-02    1.40       1.1  T
   4    -78.9583716 -0.779691E-05  0.303E-03    1.40       4.7  T
   5    -78.9583716  0.189550E-07  0.191E-03    1.40       7.5  T
   6    -78.9583717 -0.120961E-06  0.799E-04    1.40      17.9  T
   7    -78.9583717 -0.196715E-07  0.348E-04    1.40      41.0  T
     SCC iter.                  ...        0 min,  0.208 sec
     gradient                   ...        0 min,  0.016 sec
 * total energy  :   -77.6357646 Eh     change       -0.4366288E-04 Eh
   gradient norm :     0.0020920 Eh/α   predicted    -0.2623053E-04 ( -39.92%)
   displ. norm   :     0.2170936 α      lambda       -0.5995857E-04
   maximum displ.:     0.1490965 α      in ANC's #1, #2, #5, ...
 * RMSD in coord.:     0.5910415 α      energy gain  -0.3844118E-01 Eh

generating ANC from model Hessian ...
Using Lindh-Hessian (1995)
 Shifting diagonal of input Hessian by    9.8815841452083528E-003
 Lowest  eigenvalues of input Hessian
    0.000000    0.000000    0.000000    0.000000    0.000000    0.000000
    0.010000    0.010159    0.010379    0.010523    0.011347    0.012153
    0.013408    0.013519    0.014702    0.017182    0.017242    0.018816
 Highest eigenvalues
    2.021071    2.059211    2.078350    2.086830    2.114041    2.154558


........................................................................
.............................. CYCLE   21 ..............................
........................................................................
   1    -78.9581775 -0.789582E+02  0.482E-02    1.40       0.0  T
   2    -78.9581775  0.148357E-07  0.294E-02    1.40       1.0  T
   3    -78.9581648  0.127730E-04  0.169E-02    1.40       1.0  T
   4    -78.9581784 -0.136544E-04  0.343E-03    1.40       4.2  T
   5    -78.9581783  0.728703E-07  0.218E-03    1.40       6.5  T
   6    -78.9581785 -0.178448E-06  0.823E-04    1.40      17.4  T
   7    -78.9581785 -0.161894E-07  0.392E-04    1.40      36.4  T
     SCC iter.                  ...        0 min,  0.238 sec
     gradient                   ...        0 min,  0.039 sec
 * total energy  :   -77.6358165 Eh     change       -0.5186097E-04 Eh
   gradient norm :     0.0024927 Eh/α   predicted     0.0000000E+00 (-100.00%)
   displ. norm   :     0.0380185 α      lambda       -0.2381749E-04
   maximum displ.:     0.0202604 α      in ANC's #1, #2, #4, ...

........................................................................
.............................. CYCLE   22 ..............................
........................................................................
   1    -78.9581910 -0.789582E+02  0.109E-02    1.40       0.0  T
   2    -78.9581911 -0.610239E-07  0.651E-03    1.40       2.2  T
   3    -78.9581905  0.567701E-06  0.370E-03    1.40       3.9  T
   4    -78.9581911 -0.604135E-06  0.104E-03    1.40      13.7  T
   5    -78.9581912 -0.315712E-07  0.567E-04    1.40      25.2  T
   6    -78.9581912 -0.443295E-08  0.353E-04    1.40      40.5  T
     SCC iter.                  ...        0 min,  0.197 sec
     gradient                   ...        0 min,  0.017 sec
 * total energy  :   -77.6358387 Eh     change       -0.2224480E-04 Eh
   gradient norm :     0.0013777 Eh/α   predicted    -0.1288963E-04 ( -42.06%)
   displ. norm   :     0.1974591 α      lambda       -0.6221946E-04
   maximum displ.:     0.1048411 α      in ANC's #1, #4, #2, ...

........................................................................
.............................. CYCLE   23 ..............................
........................................................................
   1    -78.9580893 -0.789581E+02  0.472E-02    1.40       0.0  T
   2    -78.9580903 -0.984892E-06  0.277E-02    1.40       1.0  T
   3    -78.9580868  0.348985E-05  0.954E-03    1.40       1.5  T
   4    -78.9580907 -0.387913E-05  0.270E-03    1.40       5.3  T
   5    -78.9580908 -0.132026E-06  0.138E-03    1.40      10.4  T
   6    -78.9580908  0.348196E-08  0.889E-04    1.40      16.1  T
   7    -78.9580908 -0.220884E-07  0.438E-04    1.40      32.6  T
     SCC iter.                  ...        0 min,  0.202 sec
     gradient                   ...        0 min,  0.017 sec
 * total energy  :   -77.6358864 Eh     change       -0.4769236E-04 Eh
   gradient norm :     0.0029776 Eh/α   predicted    -0.3165075E-04 ( -33.64%)
   displ. norm   :     0.0498335 α      lambda       -0.1790509E-04
   maximum displ.:     0.0312165 α      in ANC's #1, #2, #4, ...

........................................................................
.............................. CYCLE   24 ..............................
........................................................................
   1    -78.9582513 -0.789583E+02  0.108E-02    1.40       0.0  T
   2    -78.9582513 -0.199194E-07  0.644E-03    1.40       2.2  T
   3    -78.9582509  0.358370E-06  0.279E-03    1.40       5.1  T
   4    -78.9582513 -0.376409E-06  0.770E-04    1.40      18.5  T
   5    -78.9582513 -0.373166E-08  0.519E-04    1.40      27.5  T
     SCC iter.                  ...        0 min,  0.175 sec
     gradient                   ...        0 min,  0.017 sec
 * total energy  :   -77.6359031 Eh     change       -0.1665211E-04 Eh
   gradient norm :     0.0023834 Eh/α   predicted    -0.8975719E-05 ( -46.10%)
   displ. norm   :     0.1398331 α      lambda       -0.5190684E-04
   maximum displ.:     0.0859033 α      in ANC's #1, #2, #4, ...

........................................................................
.............................. CYCLE   25 ..............................
........................................................................
   1    -78.9585335 -0.789585E+02  0.335E-02    1.41       0.0  T
   2    -78.9585338 -0.275193E-06  0.203E-02    1.40       1.0  T
   3    -78.9585303  0.348195E-05  0.914E-03    1.41       1.6  T
   4    -78.9585340 -0.371140E-05  0.244E-03    1.40       5.9  T
   5    -78.9585340 -0.218799E-07  0.165E-03    1.40       8.7  T
   6    -78.9585341 -0.755232E-07  0.859E-04    1.40      16.6  T
   7    -78.9585341 -0.231808E-07  0.302E-04    1.40      47.4  T
     SCC iter.                  ...        0 min,  0.216 sec
     gradient                   ...        0 min,  0.019 sec
 * total energy  :   -77.6359440 Eh     change       -0.4089210E-04 Eh
   gradient norm :     0.0009425 Eh/α   predicted    -0.2647116E-04 ( -35.27%)
   displ. norm   :     0.2762976 α      lambda       -0.4224880E-04
   maximum displ.:     0.1715796 α      in ANC's #1, #2, #4, ...

........................................................................
.............................. CYCLE   26 ..............................
........................................................................
   1    -78.9583506 -0.789584E+02  0.638E-02    1.41       0.0  T
   2    -78.9583512 -0.623286E-06  0.383E-02    1.41       1.0  T
   3    -78.9583458  0.539021E-05  0.119E-02    1.41       1.2  T
   4    -78.9583515 -0.569673E-05  0.434E-03    1.41       3.3  T
   5    -78.9583515  0.409134E-07  0.266E-03    1.41       5.4  T
   6    -78.9583517 -0.247900E-06  0.132E-03    1.41      10.9  T
   7    -78.9583518 -0.631115E-07  0.492E-04    1.41      29.1  T
   8    -78.9583518 -0.245265E-09  0.287E-04    1.41      49.8  T
     SCC iter.                  ...        0 min,  0.236 sec
     gradient                   ...        0 min,  0.019 sec
 * total energy  :   -77.6359879 Eh     change       -0.4389998E-04 Eh
   gradient norm :     0.0028464 Eh/α   predicted    -0.2184416E-04 ( -50.24%)
   displ. norm   :     0.1203296 α      lambda       -0.2516836E-04
   maximum displ.:     0.0769111 α      in ANC's #1, #2, #4, ...

........................................................................
.............................. CYCLE   27 ..............................
........................................................................
   1    -78.9583909 -0.789584E+02  0.269E-02    1.41       0.0  T
   2    -78.9583909 -0.659882E-07  0.162E-02    1.41       1.0  T
   3    -78.9583903  0.653971E-06  0.418E-03    1.41       3.4  T
   4    -78.9583909 -0.677753E-06  0.187E-03    1.41       7.6  T
   5    -78.9583910 -0.125427E-07  0.961E-04    1.41      14.9  T
   6    -78.9583910 -0.281686E-07  0.421E-04    1.41      33.9  T
     SCC iter.                  ...        0 min,  0.197 sec
     gradient                   ...        0 min,  0.017 sec
 * total energy  :   -77.6360115 Eh     change       -0.2361921E-04 Eh
   gradient norm :     0.0025748 Eh/α   predicted    -0.1277002E-04 ( -45.93%)
   displ. norm   :     0.1757575 α      lambda       -0.4651341E-04
   maximum displ.:     0.1134068 α      in ANC's #1, #2, #4, ...

........................................................................
.............................. CYCLE   28 ..............................
........................................................................
   1    -78.9585189 -0.789585E+02  0.413E-02    1.41       0.0  T
   2    -78.9585191 -0.184012E-06  0.250E-02    1.41       1.0  T
   3    -78.9585153  0.379429E-05  0.947E-03    1.41       1.5  T
   4    -78.9585193 -0.402465E-05  0.311E-03    1.41       4.6  T
   5    -78.9585193 -0.459349E-08  0.177E-03    1.41       8.1  T
   6    -78.9585194 -0.690527E-07  0.821E-04    1.41      17.4  T
   7    -78.9585194 -0.212471E-07  0.365E-04    1.41      39.2  T
     SCC iter.                  ...        0 min,  0.221 sec
     gradient                   ...        0 min,  0.017 sec
 * total energy  :   -77.6360528 Eh     change       -0.4129579E-04 Eh
   gradient norm :     0.0013280 Eh/α   predicted    -0.2398018E-04 ( -41.93%)
   displ. norm   :     0.3968933 α      lambda       -0.6029278E-04
   maximum displ.:     0.2581900 α      in ANC's #1, #2, #4, ...

........................................................................
.............................. CYCLE   29 ..............................
........................................................................
   1    -78.9579395 -0.789579E+02  0.935E-02    1.41       0.0  T
   2    -78.9579402 -0.670152E-06  0.567E-02    1.41       1.0  T
   3    -78.9579144  0.258332E-04  0.243E-02    1.41       1.0  T
   4    -78.9579419 -0.275315E-04  0.679E-03    1.41       2.1  T
   5    -78.9579417  0.199834E-06  0.420E-03    1.41       3.4  T
   6    -78.9579422 -0.483180E-06  0.173E-03    1.41       8.3  T
   7    -78.9579423 -0.868612E-07  0.746E-04    1.41      19.2  T
   8    -78.9579423 -0.385933E-08  0.341E-04    1.41      41.9  T
     SCC iter.                  ...        0 min,  0.235 sec
     gradient                   ...        0 min,  0.016 sec
 * total energy  :   -77.6361200 Eh     change       -0.6720603E-04 Eh
   gradient norm :     0.0018837 Eh/α   predicted    -0.3226204E-04 ( -52.00%)
   displ. norm   :     0.2811133 α      lambda       -0.3064125E-04
   maximum displ.:     0.1880952 α      in ANC's #1, #2, #4, ...

........................................................................
.............................. CYCLE   30 ..............................
........................................................................
   1    -78.9578508 -0.789579E+02  0.664E-02    1.41       0.0  T
   2    -78.9578511 -0.331580E-06  0.402E-02    1.41       1.0  T
   3    -78.9578414  0.973739E-05  0.151E-02    1.41       1.0  T
   4    -78.9578517 -0.103176E-04  0.490E-03    1.41       2.9  T
   5    -78.9578515  0.133328E-06  0.300E-03    1.41       4.8  T
   6    -78.9578519 -0.330785E-06  0.103E-03    1.41      13.9  T
   7    -78.9578519 -0.169234E-07  0.518E-04    1.41      27.6  T
   8    -78.9578519 -0.527990E-08  0.202E-04    1.41      70.7  T
     SCC iter.                  ...        0 min,  0.220 sec
     gradient                   ...        0 min,  0.017 sec
 * total energy  :   -77.6361586 Eh     change       -0.3864980E-04 Eh
   gradient norm :     0.0021059 Eh/α   predicted    -0.1586158E-04 ( -58.96%)
   displ. norm   :     0.1487765 α      lambda       -0.2706843E-04
   maximum displ.:     0.1028493 α      in ANC's #1, #2, #3, ...

........................................................................
.............................. CYCLE   31 ..............................
........................................................................
   1    -78.9582340 -0.789582E+02  0.336E-02    1.41       0.0  T
   2    -78.9582341 -0.880752E-07  0.203E-02    1.41       1.0  T
   3    -78.9582321  0.200476E-05  0.684E-03    1.41       2.1  T
   4    -78.9582342 -0.210292E-05  0.237E-03    1.41       6.0  T
   5    -78.9582342  0.188856E-07  0.147E-03    1.41       9.7  T
   6    -78.9582343 -0.792054E-07  0.490E-04    1.41      29.1  T
   7    -78.9582343 -0.301978E-08  0.272E-04    1.41      52.5  T
     SCC iter.                  ...        0 min,  0.364 sec
     gradient                   ...        0 min,  0.018 sec
 * total energy  :   -77.6361829 Eh     change       -0.2426393E-04 Eh
   gradient norm :     0.0015070 Eh/α   predicted    -0.1383480E-04 ( -42.98%)
   displ. norm   :     0.2592514 α      lambda       -0.3253763E-04
   maximum displ.:     0.1831725 α      in ANC's #1, #2, #3, ...

........................................................................
.............................. CYCLE   32 ..............................
........................................................................
   1    -78.9587615 -0.789588E+02  0.590E-02    1.41       0.0  T
   2    -78.9587619 -0.399690E-06  0.357E-02    1.41       1.0  T
   3    -78.9587593  0.258574E-05  0.905E-03    1.41       1.6  T
   4    -78.9587618 -0.249718E-05  0.473E-03    1.41       3.0  T
   5    -78.9587620 -0.158650E-06  0.252E-03    1.41       5.7  T
   6    -78.9587622 -0.238180E-06  0.890E-04    1.41      16.0  T
   7    -78.9587622 -0.104314E-07  0.463E-04    1.41      30.9  T
     SCC iter.                  ...        0 min,  0.203 sec
     gradient                   ...        0 min,  0.016 sec
 * total energy  :   -77.6362233 Eh     change       -0.4038204E-04 Eh
   gradient norm :     0.0008106 Eh/α   predicted    -0.1675654E-04 ( -58.50%)
   displ. norm   :     0.2347352 α      lambda       -0.2434718E-04
   maximum displ.:     0.1688995 α      in ANC's #1, #2, #3, ...

........................................................................
.............................. CYCLE   33 ..............................
........................................................................
   1    -78.9584333 -0.789584E+02  0.498E-02    1.41       0.0  T
   2    -78.9584336 -0.272680E-06  0.300E-02    1.41       1.0  T
   3    -78.9584324  0.117400E-05  0.653E-03    1.41       2.2  T
   4    -78.9584335 -0.103786E-05  0.388E-03    1.41       3.7  T
   5    -78.9584337 -0.201712E-06  0.180E-03    1.41       7.9  T
   6    -78.9584338 -0.115603E-06  0.721E-04    1.41      19.8  T
   7    -78.9584338 -0.529204E-08  0.392E-04    1.41      36.4  T
     SCC iter.                  ...        0 min,  0.244 sec
     gradient                   ...        0 min,  0.017 sec
 * total energy  :   -77.6362552 Eh     change       -0.3195246E-04 Eh
   gradient norm :     0.0012186 Eh/α   predicted    -0.1247319E-04 ( -60.96%)
   displ. norm   :     0.2112756 α      lambda       -0.2246588E-04
   maximum displ.:     0.1533235 α      in ANC's #1, #2, #5, ...

........................................................................
.............................. CYCLE   34 ..............................
........................................................................
   1    -78.9586267 -0.789586E+02  0.437E-02    1.41       0.0  T
   2    -78.9586269 -0.188873E-06  0.263E-02    1.41       1.0  T
   3    -78.9586250  0.193859E-05  0.734E-03    1.41       1.9  T
   4    -78.9586270 -0.196435E-05  0.345E-03    1.41       4.1  T
   5    -78.9586271 -0.976167E-07  0.140E-03    1.41      10.2  T
   6    -78.9586271 -0.771100E-07  0.654E-04    1.41      21.8  T
   7    -78.9586271 -0.635913E-08  0.329E-04    1.41      43.4  T
     SCC iter.                  ...        0 min,  0.216 sec
     gradient                   ...        0 min,  0.017 sec
 * total energy  :   -77.6362855 Eh     change       -0.3032561E-04 Eh
   gradient norm :     0.0013538 Eh/α   predicted    -0.1146039E-04 ( -62.21%)
   displ. norm   :     0.2504762 α      lambda       -0.2697985E-04
   maximum displ.:     0.1807763 α      in ANC's #1, #2, #5, ...

........................................................................
.............................. CYCLE   35 ..............................
........................................................................
   1    -78.9585429 -0.789585E+02  0.475E-02    1.42       0.0  T
   2    -78.9585431 -0.205040E-06  0.284E-02    1.42       1.0  T
   3    -78.9585394  0.366017E-05  0.935E-03    1.41       1.5  T
   4    -78.9585432 -0.380272E-05  0.367E-03    1.42       3.9  T
   5    -78.9585433 -0.471471E-07  0.170E-03    1.42       8.4  T
   6    -78.9585434 -0.123746E-06  0.734E-04    1.42      19.5  T
   7    -78.9585434 -0.837208E-08  0.381E-04    1.42      37.5  T
     SCC iter.                  ...        0 min,  0.230 sec
     gradient                   ...        0 min,  0.015 sec
 * total energy  :   -77.6363213 Eh     change       -0.3579003E-04 Eh
   gradient norm :     0.0011860 Eh/α   predicted    -0.1386858E-04 ( -61.25%)
   displ. norm   :     0.3144517 α      lambda       -0.3218320E-04
   maximum displ.:     0.2254760 α      in ANC's #1, #2, #5, ...

........................................................................
.............................. CYCLE   36 ..............................
........................................................................
   1    -78.9581156 -0.789581E+02  0.636E-02    1.42       0.0  T
   2    -78.9581160 -0.336073E-06  0.386E-02    1.42       1.0  T
   3    -78.9581097  0.623434E-05  0.121E-02    1.42       1.2  T
   4    -78.9581161 -0.637061E-05  0.508E-03    1.42       2.8  T
   5    -78.9581163 -0.168276E-06  0.228E-03    1.42       6.3  T
   6    -78.9581165 -0.198967E-06  0.992E-04    1.42      14.4  T
   7    -78.9581165 -0.168293E-07  0.494E-04    1.42      28.9  T
     SCC iter.                  ...        0 min,  0.207 sec
     gradient                   ...        0 min,  0.015 sec
 * total energy  :   -77.6363615 Eh     change       -0.4020863E-04 Eh
   gradient norm :     0.0010696 Eh/α   predicted    -0.1680184E-04 ( -58.21%)
   displ. norm   :     0.3311625 α      lambda       -0.2934789E-04
   maximum displ.:     0.2392340 α      in ANC's #1, #2, #5, ...

........................................................................
.............................. CYCLE   37 ..............................
........................................................................
   1    -78.9582310 -0.789582E+02  0.612E-02    1.42       0.0  T
   2    -78.9582313 -0.278561E-06  0.366E-02    1.42       1.0  T
   3    -78.9582238  0.744713E-05  0.125E-02    1.42       1.1  T
   4    -78.9582315 -0.773369E-05  0.461E-03    1.42       3.1  T
   5    -78.9582317 -0.142212E-06  0.199E-03    1.42       7.2  T
   6    -78.9582318 -0.140447E-06  0.908E-04    1.42      15.7  T
   7    -78.9582318 -0.962147E-08  0.509E-04    1.42      28.0  T
     SCC iter.                  ...        0 min,  0.204 sec
     gradient                   ...        0 min,  0.024 sec
 * total energy  :   -77.6363969 Eh     change       -0.3533992E-04 Eh
   gradient norm :     0.0008727 Eh/α   predicted    -0.1538987E-04 ( -56.45%)
   displ. norm   :     0.2606139 α      lambda       -0.1823142E-04
   maximum displ.:     0.1914335 α      in ANC's #1, #2, #4, ...

........................................................................
.............................. CYCLE   38 ..............................
........................................................................
   1    -78.9581944 -0.789582E+02  0.497E-02    1.42       0.0  T
   2    -78.9581945 -0.186025E-06  0.298E-02    1.42       1.0  T
   3    -78.9581903  0.426092E-05  0.928E-03    1.42       1.5  T
   4    -78.9581946 -0.436053E-05  0.373E-03    1.42       3.8  T
   5    -78.9581948 -0.157033E-06  0.154E-03    1.42       9.3  T
   6    -78.9581949 -0.592965E-07  0.748E-04    1.42      19.1  T
   7    -78.9581949 -0.688547E-08  0.431E-04    1.42      33.2  T
     SCC iter.                  ...        0 min,  0.237 sec
     gradient                   ...        0 min,  0.018 sec
 * total energy  :   -77.6364191 Eh     change       -0.2217295E-04 Eh
   gradient norm :     0.0007105 Eh/α   predicted    -0.9392439E-05 ( -57.64%)
   displ. norm   :     0.1652904 α      lambda       -0.1036749E-04
   maximum displ.:     0.1255079 α      in ANC's #1, #2, #4, ...

........................................................................
.............................. CYCLE   39 ..............................
........................................................................
   1    -78.9583887 -0.789584E+02  0.325E-02    1.42       0.0  T
   2    -78.9583888 -0.640599E-07  0.195E-02    1.42       1.0  T
   3    -78.9583867  0.207652E-05  0.621E-03    1.42       2.3  T
   4    -78.9583888 -0.215098E-05  0.233E-03    1.42       6.1  T
   5    -78.9583889 -0.332499E-07  0.108E-03    1.42      13.2  T
   6    -78.9583889 -0.412035E-07  0.454E-04    1.42      31.5  T
   7    -78.9583889 -0.184113E-08  0.260E-04    1.42      55.0  T
     SCC iter.                  ...        0 min,  0.206 sec
     gradient                   ...        0 min,  0.016 sec
 * total energy  :   -77.6364317 Eh     change       -0.1262966E-04 Eh
   gradient norm :     0.0005875 Eh/α   predicted    -0.5250980E-05 ( -58.42%)
   displ. norm   :     0.0991717 α      lambda       -0.6543029E-05
   maximum displ.:     0.0789890 α      in ANC's #1, #2, #4, ...

........................................................................
.............................. CYCLE   40 ..............................
........................................................................
   1    -78.9586610 -0.789587E+02  0.190E-02    1.42       0.0  T
   2    -78.9586610 -0.264174E-07  0.113E-02    1.42       1.3  T
   3    -78.9586600  0.101033E-05  0.421E-03    1.42       3.4  T
   4    -78.9586611 -0.106270E-05  0.133E-03    1.42      10.8  T
   5    -78.9586611 -0.598682E-08  0.749E-04    1.42      19.1  T
   6    -78.9586611 -0.170571E-07  0.317E-04    1.42      45.0  T
     SCC iter.                  ...        0 min,  0.207 sec
     gradient                   ...        0 min,  0.017 sec
 * total energy  :   -77.6364394 Eh     change       -0.7750639E-05 Eh
   gradient norm :     0.0004718 Eh/α   predicted    -0.3286699E-05 ( -57.59%)
   displ. norm   :     0.0601558 α      lambda       -0.4286509E-05
   maximum displ.:     0.0499348 α      in ANC's #1, #2, #9, ...

........................................................................
.............................. CYCLE   41 ..............................
........................................................................
   1    -78.9586105 -0.789586E+02  0.131E-02    1.42       0.0  T
   2    -78.9586105 -0.109032E-07  0.788E-03    1.42       1.8  T
   3    -78.9586098  0.690465E-06  0.341E-03    1.42       4.2  T
   4    -78.9586105 -0.732489E-06  0.844E-04    1.42      16.9  T
   5    -78.9586105  0.387051E-08  0.608E-04    1.42      23.5  T
     SCC iter.                  ...        0 min,  0.190 sec
     gradient                   ...        0 min,  0.021 sec
 * total energy  :   -77.6364449 Eh     change       -0.5493268E-05 Eh
   gradient norm :     0.0003326 Eh/α   predicted    -0.2150011E-05 ( -60.86%)
   displ. norm   :     0.0470726 α      lambda       -0.3513926E-05
   maximum displ.:     0.0387250 α      in ANC's #1, #5, #3, ...

........................................................................
.............................. CYCLE   42 ..............................
........................................................................
   1    -78.9586023 -0.789586E+02  0.111E-02    1.42       0.0  T
   2    -78.9586023 -0.533838E-08  0.677E-03    1.42       2.1  T
   3    -78.9586018  0.495219E-06  0.297E-03    1.42       4.8  T
   4    -78.9586023 -0.525830E-06  0.784E-04    1.42      18.2  T
   5    -78.9586023  0.379676E-08  0.528E-04    1.42      27.1  T
     SCC iter.                  ...        0 min,  0.179 sec
     gradient                   ...        0 min,  0.016 sec
 * total energy  :   -77.6364496 Eh     change       -0.4666473E-05 Eh
   gradient norm :     0.0003296 Eh/α   predicted    -0.1759367E-05 ( -62.30%)
   displ. norm   :     0.0511544 α      lambda       -0.3764263E-05
   maximum displ.:     0.0393371 α      in ANC's #1, #5, #3, ...

   *** GEOMETRY OPTIMIZATION CONVERGED AFTER 42 ITERATIONS ***

------------------------------------------------------------------------
 total energy gain   :        -0.0391262 Eh      -24.5520 kcal/mol
 total RMSD          :         0.9911729 a0        0.5245 Å
 total power (kW/mol):        -2.4458511 (step)   -9.2429 (real)
------------------------------------------------------------------------

 ANCopt (total)                0 d,  0 h,  0 min, 11.114 sec
 optimizer setup                ...        0 min,  0.000 sec (  0.001%)
 model hessian                  ...        0 min,  0.027 sec (  0.247%)
 ANC generation                 ...        0 min,  0.013 sec (  0.115%)
 coordinate transformation      ...        0 min,  0.002 sec (  0.021%)
 single point calculation       ...        0 min, 10.887 sec ( 97.956%)
 optimization log               ...        0 min,  0.007 sec (  0.063%)
 hessian update                 ...        0 min,  0.024 sec (  0.219%)
 rational function              ...        0 min,  0.007 sec (  0.067%)

================
 final structure:
================
49
 xtb: 6.5.1 (fef0646)
C           -6.22019885781630       -0.29240603625095       -1.17141462564644
S           -5.01660000464319       -1.51191336857753       -1.40342925597522
C           -3.90873498187961       -0.70421797507642       -0.30396751159028
C           -2.62489973969106       -1.28809046084209       -0.07847283570703
C           -2.14195993987143       -2.38793714653723       -0.71367378419021
C           -0.81981139691054       -2.68217064038823       -0.24521982752389
C            0.25637315720592       -3.44462426143917       -0.56499955138498
C            1.33744880814545       -3.12533373543188        0.41329476194653
C            0.76276195439390       -1.93362570693077        1.21222998682526
C            2.52887315807947       -2.17165533694036        0.25874878287753
C           -0.49473693042874       -1.70219781977807        0.78663765424339
C           -1.61592688400154       -0.72686208098061        0.90599135759566
C            3.71336654459413       -1.64244100643983       -0.30400112453359
C            4.67911392827362       -1.69441648285374       -1.27104663403273
N            5.48934398605729       -0.61134243068255       -1.20551020376252
C            5.17283224861549        0.24497059829442       -0.06634269896291
C            3.93606653104743       -0.40158273031494        0.43218088511386
C            2.91901038600916       -0.11173733691089        1.30474853495193
C            2.76776524366563        1.11933605400380        2.02282235468315
C            3.32286947695729        2.28140118741849        1.63161502755232
C            4.08994359873527        2.54019906071094        0.43059783425172
C            4.13268587947106        3.77808900971603       -0.18045341531433
N            4.86837985714506        3.68829927686140       -1.31484420021712
C            5.33560287780692        2.41794801114648       -1.44853562587873
C            4.88024532258727        1.67765995625942       -0.39088059281041
C            2.05303011223627       -1.26359487284794        1.19306955215366
C           -4.49361456801519        0.44322671690527        0.18795896069341
C           -4.03118493842786        1.46245396815327        1.10029378302716
C           -4.88676438635107        2.46895454048517        1.34614692624269
Si          -6.50357398684254        2.26496835210026        0.40329867093343
C           -5.81847429549070        0.67094002818990       -0.31769601513144
H           -7.15186775673067       -0.38239971131081       -1.69509679256720
H           -2.66804541261422       -2.94805311529029       -1.46726411524153
H            0.30103520342533       -4.24695335276866       -1.27933817992717
H            1.62458469710108       -4.01029184048455        0.99016893947002
H           -1.30366500556522        0.28163111559911        0.61899105605283
H           -2.02506094887280       -0.68368233982054        1.91893826821564
H            4.82969198711341       -2.42619929227095       -2.04621719680528
H            6.34397077648057       -0.52099704404451       -1.72590882417684
H            5.99848133809891        0.19031243546672        0.66425677277937
H            2.12172575114793        1.10893285456616        2.89081916557846
H            3.10611513290566        3.17225791948996        2.20880677400633
H            3.65747538868100        4.69445181563447        0.10899592138231
H            5.05195114743861        4.44522107270593       -1.95181936890701
H            5.94733429107157        2.13401815983614       -2.28218688367235
H           -3.05155562525930        1.40218915401631        1.54751106778825
H           -4.62312078348713        3.27412142961674        2.01383040245047
H           -6.73969198403046        3.29594594749757       -0.61031202533059
H           -7.67684228337339        2.05916404162680        1.25528453507889

 Bond Distances (Angstroems)
 ---------------------------
C1-S2=1.7291         C1-C31=1.3484        C1-H32=1.0725        S2-C1=1.7291         S2-C3=1.7574         C3-S2=1.7574         
C3-C4=1.4283         C3-C27=1.3787        C4-C3=1.4283         C4-C5=1.3588         C4-C12=1.5173        C5-C4=1.3588         
C5-C6=1.4332         C5-H33=1.0763        C6-C5=1.4332         C6-C7=1.3571         C6-C11=1.4597        C7-C6=1.3571         
C7-C8=1.4926         C7-H34=1.0752        C8-C7=1.4926         C8-C9=1.5456         C8-C10=1.5339        C8-H35=1.0947        
C9-C8=1.5456         C9-C11=1.3476        C9-C26=1.4540        C10-C8=1.5339        C10-C13=1.4141       C10-C26=1.3871       
C11-C6=1.4597        C11-C9=1.3476        C11-C12=1.4908       C12-C4=1.5173        C12-C11=1.4908       C12-H36=1.0940       
C12-H37=1.0933       C13-C10=1.4141       C13-C14=1.3677       C13-C17=1.4599       C14-C13=1.3677       C14-N15=1.3542       
C14-H38=1.0766       N15-C14=1.3542       N15-C16=1.4598       N15-H39=1.0047       C16-N15=1.4598       C16-C17=1.4819       
C16-C25=1.4978       C16-H40=1.1038       C17-C13=1.4599       C17-C16=1.4819       C17-C18=1.3711       C18-C17=1.3711       
C18-C19=1.4332       C18-C26=1.4454       C19-C18=1.4332       C19-C20=1.3459       C19-H41=1.0821       C20-C19=1.3459       
C20-C21=1.4484       C20-H42=1.0834       C21-C20=1.4484       C21-C22=1.3812       C21-C25=1.4295       C22-C21=1.3812       
C22-N23=1.3550       C22-H43=1.0721       N23-C22=1.3550       N23-C24=1.3601       N23-H44=1.0062       C24-N23=1.3601       
C24-C25=1.3689       C24-H45=1.0723       C25-C16=1.4978       C25-C21=1.4295       C25-C24=1.3689       C26-C9=1.4540        
C26-C10=1.3871       C26-C18=1.4454       C27-C3=1.3787        C27-C28=1.4440       C27-C31=1.4362       C28-C27=1.4440       
C28-C29=1.3437       C28-H46=1.0786       C29-C28=1.3437       C29-Si30=1.8827      C29-H47=1.0787       Si30-C29=1.8827      
Si30-C31=1.8789      Si30-H48=1.4649      Si30-H49=1.4645      C31-C1=1.3484        C31-C27=1.4362       C31-Si30=1.8789      
H32-C1=1.0725        H33-C5=1.0763        H34-C7=1.0752        H35-C8=1.0947        H36-C12=1.0940       H37-C12=1.0933       
H38-C14=1.0766       H39-N15=1.0047       H40-C16=1.1038       H41-C19=1.0821       H42-C20=1.0834       H43-C22=1.0721       
H44-N23=1.0062       H45-C24=1.0723       H46-C28=1.0786       H47-C29=1.0787       H48-Si30=1.4649      H49-Si30=1.4645      
 C  H  Rav=1.0824 sigma=0.0097  Rmin=1.0721  Rmax=1.1038    14
 C  C  Rav=1.4259 sigma=0.0584  Rmin=1.3437  Rmax=1.5456    31
 N  H  Rav=1.0054 sigma=0.0007  Rmin=1.0047  Rmax=1.0062     2
 N  C  Rav=1.3823 sigma=0.0448  Rmin=1.3542  Rmax=1.4598     4
 Si H  Rav=1.4647 sigma=0.0002  Rmin=1.4645  Rmax=1.4649     2
 Si C  Rav=1.8808 sigma=0.0019  Rmin=1.8789  Rmax=1.8827     2
 S  C  Rav=1.7432 sigma=0.0142  Rmin=1.7291  Rmax=1.7574     2

 selected bond angles (degree)
 --------------------
C31-C1-S2=112.42               H32-C1-S2=118.68               H32-C1-C31=128.89              C3-S2-C1= 91.76                
C4-C3-S2=118.52                C27-C3-S2=109.77               C27-C3-C4=131.70               C5-C4-C3=125.21                
C12-C4-C3=123.30               C12-C4-C5=111.49               C6-C5-C4=109.95                H33-C5-C4=125.09               
H33-C5-C6=124.96               C7-C6-C5=140.34                C11-C6-C5=107.38               C11-C6-C7=111.54               
C8-C7-C6=107.44                H34-C7-C6=127.50               H34-C7-C8=124.40               C9-C8-C7=103.56                
C10-C8-C7=129.02               C10-C8-C9= 82.04               H35-C8-C7=111.25               H35-C8-C9=116.64               
H35-C8-C10=110.61              C11-C9-C8=108.43               C26-C9-C8= 91.06               C26-C9-C11=138.14              
C13-C10-C8=157.42              C26-C10-C8= 94.17              C26-C10-C13=108.08             

 selected dihedral angles (degree)
 ---------------------------------
C3-S2-C1-C31=  0.04           C3-S2-C1-H32=180.00           C4-C3-S2-C1=180.51            C27-C3-S2-C1=  0.06           
C5-C4-C3-S2=  4.45            C5-C4-C3-C27=185.02           C12-C4-C3-S2=183.57           C12-C4-C3-C27=  4.14          
C6-C5-C4-C3=179.55            C6-C5-C4-C12=  0.33           H33-C5-C4-C3=  0.34           H33-C5-C4-C12=181.12          
C7-C6-C5-C4=193.21            C7-C6-C5-H33= 12.42           C11-C6-C5-C4=  1.82           C11-C6-C5-H33=181.03          
C8-C7-C6-C5=176.52            C8-C7-C6-C11=  8.21           H34-C7-C6-C5=347.47           H34-C7-C6-C11=179.17          
C9-C8-C7-C6=352.81            C9-C8-C7-H34=181.50           C10-C8-C7-C6=262.12           C10-C8-C7-H34= 90.81          
H35-C8-C7-C6=118.87           H35-C8-C7-H34=307.57          C11-C9-C8-C7=  3.78           C11-C9-C8-C10=132.11          
C11-C9-C8-H35=241.22          C26-C9-C8-C7=221.47           C26-C9-C8-C10=349.79          C26-C9-C8-H35= 98.91          
C13-C10-C8-C7=301.39          C13-C10-C8-C9=200.36          C13-C10-C8-H35= 84.82         C26-C10-C8-C7=111.76          
C26-C10-C8-C9= 10.73          C26-C10-C8-H35=255.19         
           -------------------------------------------------
          |                Final Singlepoint                |
           -------------------------------------------------

          ...................................................
          :                      SETUP                      :
          :.................................................:
          :  # basis functions                 154          :
          :  # atomic orbitals                 152          :
          :  # shells                           82          :
          :  # electrons                       146          :
          :  max. iterations                  4000          :
          :  Hamiltonian                  GFN2-xTB          :
          :  restarted?                      false          :
          :  GBSA solvation                  false          :
          :  PC potential                    false          :
          :  electronic temp.          300.0000000     K    :
          :  accuracy                    1.0000000          :
          :  -> integral cutoff          0.2500000E+02      :
          :  -> integral neglect         0.1000000E-07      :
          :  -> SCF convergence          0.1000000E-05 Eh   :
          :  -> wf. convergence          0.1000000E-03 e    :
          :  Broyden damping             0.4000000          :
          ...................................................

 iter      E             dE          RMSdq      gap      omega  full diag
   1    -78.9586023 -0.789586E+02  0.177E-04    1.42       0.0  T
   2    -78.9586023  0.525631E-09  0.181E-04    1.42      79.0  T
   3    -78.9586023 -0.157756E-08  0.664E-05    1.42     215.2  T

   *** convergence criteria satisfied after 3 iterations ***

         #    Occupation            Energy/Eh            Energy/eV
      -------------------------------------------------------------
         1        2.0000           -0.7271814             -19.7876
       ...           ...                  ...                  ...
        67        2.0000           -0.3816286             -10.3846
        68        2.0000           -0.3754266             -10.2159
        69        2.0000           -0.3704387             -10.0802
        70        2.0000           -0.3668544              -9.9826
        71        2.0000           -0.3468018              -9.4370
        72        2.0000           -0.3364404              -9.1550
        73        2.0000           -0.3189904              -8.6802 (HOMO)
        74                         -0.2666713              -7.2565 (LUMO)
        75                         -0.2608221              -7.0973
        76                         -0.2357634              -6.4154
        77                         -0.2271459              -6.1810
        78                         -0.2083984              -5.6708
       ...                                ...                  ...
       152                          0.7955175              21.6471
      -------------------------------------------------------------
                  HL-Gap            0.0523192 Eh            1.4237 eV
             Fermi-level           -0.2928308 Eh           -7.9683 eV

 SCC (total)                   0 d,  0 h,  0 min,  0.177 sec
 SCC setup                      ...        0 min,  0.000 sec (  0.081%)
 Dispersion                     ...        0 min,  0.002 sec (  1.267%)
 classical contributions        ...        0 min,  0.000 sec (  0.044%)
 integral evaluation            ...        0 min,  0.005 sec (  2.892%)
 iterations                     ...        0 min,  0.151 sec ( 85.055%)
 molecular gradient             ...        0 min,  0.017 sec (  9.588%)
 printout                       ...        0 min,  0.002 sec (  1.051%)

         :::::::::::::::::::::::::::::::::::::::::::::::::::::
         ::                     SUMMARY                     ::
         :::::::::::::::::::::::::::::::::::::::::::::::::::::
         :: total energy             -77.636449610294 Eh    ::
         :: gradient norm              0.000328438599 Eh/a0 ::
         :: HOMO-LUMO gap              1.423677800757 eV    ::
         ::.................................................::
         :: SCC energy               -78.958602330671 Eh    ::
         :: -> isotropic ES            0.025849081140 Eh    ::
         :: -> anisotropic ES          0.011931080223 Eh    ::
         :: -> anisotropic XC          0.035473129952 Eh    ::
         :: -> dispersion             -0.065080282759 Eh    ::
         :: repulsion energy           1.321783532620 Eh    ::
         :: add. restraining           0.000000000000 Eh    ::
         :: total charge              -0.000000000000 e     ::
         :::::::::::::::::::::::::::::::::::::::::::::::::::::

           -------------------------------------------------
          |                Property Printout                |
           -------------------------------------------------

    * Orbital Energies and Occupations

         #    Occupation            Energy/Eh            Energy/eV
      -------------------------------------------------------------
         1        2.0000           -0.7271814             -19.7876
       ...           ...                  ...                  ...
        61        2.0000           -0.4102087             -11.1623
        62        2.0000           -0.4047016             -11.0125
        63        2.0000           -0.4039889             -10.9931
        64        2.0000           -0.3975858             -10.8189
        65        2.0000           -0.3898739             -10.6090
        66        2.0000           -0.3835255             -10.4363
        67        2.0000           -0.3816286             -10.3846
        68        2.0000           -0.3754266             -10.2159
        69        2.0000           -0.3704387             -10.0802
        70        2.0000           -0.3668544              -9.9826
        71        2.0000           -0.3468018              -9.4370
        72        2.0000           -0.3364404              -9.1550
        73        2.0000           -0.3189904              -8.6802 (HOMO)
        74                         -0.2666713              -7.2565 (LUMO)
        75                         -0.2608221              -7.0973
        76                         -0.2357634              -6.4154
        77                         -0.2271459              -6.1810
        78                         -0.2083984              -5.6708
        79                         -0.1942436              -5.2856
        80                         -0.1866674              -5.0795
        81                         -0.1819353              -4.9507
        82                         -0.1807018              -4.9171
        83                         -0.1569068              -4.2697
        84                         -0.1333919              -3.6298
       ...                                ...                  ...
       152                          0.7955175              21.6471
      -------------------------------------------------------------
                  HL-Gap            0.0523192 Eh            1.4237 eV
             Fermi-level           -0.2928308 Eh           -7.9683 eV

     #   Z          covCN         q      C6AA      α(0)
     1   6 C        2.932    -0.016    28.407     8.741
     2  16 S        2.325    -0.071   143.991    20.196
     3   6 C        2.974     0.017    27.620     8.621
     4   6 C        3.078     0.002    27.894     8.659
     5   6 C        2.953    -0.043    29.059     8.842
     6   6 C        3.142    -0.001    27.810     8.629
     7   6 C        2.944    -0.060    29.487     8.906
     8   6 C        4.157    -0.023    20.904     6.494
     9   6 C        3.468    -0.016    23.042     7.208
    10   6 C        3.491    -0.032    22.956     7.131
    11   6 C        3.083    -0.023    28.491     8.750
    12   6 C        3.840    -0.052    21.470     6.592
    13   6 C        3.110    -0.030    28.605     8.762
    14   6 C        2.933     0.038    27.144     8.544
    15   7 N        2.764    -0.128    23.768     7.241
    16   6 C        3.840     0.047    19.754     6.323
    17   6 C        3.280    -0.033    27.330     8.412
    18   6 C        3.010    -0.012    28.289     8.725
    19   6 C        2.894    -0.038    28.946     8.821
    20   6 C        2.899    -0.047    29.168     8.855
    21   6 C        3.084    -0.017    28.338     8.727
    22   6 C        3.047    -0.021    28.479     8.753
    23   7 N        2.803    -0.078    22.760     7.086
    24   6 C        3.027    -0.025    28.592     8.771
    25   6 C        3.117    -0.028    28.516     8.747
    26   6 C        3.373    -0.023    25.244     7.850
    27   6 C        3.236    -0.020    27.615     8.526
    28   6 C        2.978    -0.031    28.773     8.799
    29   6 C        2.809    -0.146    31.730     9.229
    30  14 Si       3.732     0.446    98.359    18.986
    31   6 C        3.054    -0.121    31.014     9.133
    32   1 H        0.926     0.029     2.603     2.523
    33   1 H        0.926     0.032     2.562     2.503
    34   1 H        0.926     0.019     2.743     2.590
    35   1 H        0.924     0.036     2.503     2.474
    36   1 H        0.924     0.048     2.341     2.393
    37   1 H        0.924     0.046     2.367     2.406
    38   1 H        0.926     0.042     2.427     2.436
    39   1 H        0.860     0.154     1.372     1.834
    40   1 H        0.923     0.045     2.381     2.413
    41   1 H        0.925     0.027     2.624     2.533
    42   1 H        0.925     0.022     2.698     2.569
    43   1 H        0.926     0.032     2.558     2.501
    44   1 H        0.860     0.158     1.345     1.817
    45   1 H        0.926     0.023     2.685     2.562
    46   1 H        0.926     0.026     2.647     2.544
    47   1 H        0.926     0.016     2.796     2.615
    48   1 H        0.918    -0.087     5.126     3.541
    49   1 H        0.918    -0.086     5.104     3.534

 Mol. C6AA /au·bohr⁶  :      40422.927926
 Mol. C8AA /au·bohr⁸  :    1141574.013046
 Mol. α(0) /au        :        324.844407


Wiberg/Mayer (AO) data.
largest (>0.10) Wiberg bond orders for each atom

 ---------------------------------------------------------------------------
     #   Z sym  total        # sym  WBO       # sym  WBO       # sym  WBO
 ---------------------------------------------------------------------------
     1   6 C    3.941 --    31 C    1.662     2 S    1.159    32 H    0.971
     2  16 S    2.577 --     1 C    1.159     3 C    1.102
     3   6 C    3.948 --    27 C    1.454     4 C    1.169     2 S    1.102
     4   6 C    3.984 --     5 C    1.647     3 C    1.169    12 C    0.998
     5   6 C    3.957 --     4 C    1.647     6 C    1.145    33 H    0.964
     6   6 C    3.980 --     7 C    1.626     5 C    1.145    11 C    1.090
     7   6 C    3.920 --     6 C    1.626     8 C    1.037    34 H    0.971
     8   6 C    3.982 --     7 C    1.037     9 C    0.956    35 H    0.941
                            10 C    0.935
     9   6 C    3.934 --    11 C    1.636    26 C    1.086     8 C    0.956
    10   6 C    3.947 --    26 C    1.477    13 C    1.198     8 C    0.935
    11   6 C    3.942 --     9 C    1.636     6 C    1.090    12 C    1.015
    12   6 C    3.997 --    11 C    1.015     4 C    0.998    37 H    0.950
                            36 H    0.945
    13   6 C    3.971 --    14 C    1.468    10 C    1.198    17 C    1.099
    14   6 C    3.939 --    13 C    1.468    15 N    1.288    38 H    0.964
    15   7 N    3.467 --    14 C    1.288    16 C    0.974    39 H    0.950
    16   6 C    3.965 --    17 C    1.004    25 C    0.975    15 N    0.974
                            40 H    0.925
    17   6 C    3.968 --    18 C    1.516    13 C    1.099    16 C    1.004
    18   6 C    3.980 --    17 C    1.516    19 C    1.140    26 C    1.125
    19   6 C    3.991 --    20 C    1.736    18 C    1.140    41 H    0.966
    20   6 C    3.988 --    19 C    1.736    21 C    1.116    42 H    0.966
    21   6 C    3.979 --    22 C    1.470    25 C    1.241    20 C    1.116
    22   6 C    3.934 --    21 C    1.470    23 N    1.241    43 H    0.971
                            24 C    0.135
    23   7 N    3.584 --    22 C    1.241    24 C    1.216    44 H    0.948
    24   6 C    3.937 --    25 C    1.540    23 N    1.216    45 H    0.971
                            22 C    0.135
    25   6 C    3.970 --    24 C    1.540    21 C    1.241    16 C    0.975
    26   6 C    3.962 --    10 C    1.477    18 C    1.125     9 C    1.086
    27   6 C    3.959 --     3 C    1.454    31 C    1.201    28 C    1.132
    28   6 C    3.989 --    29 C    1.820    27 C    1.132    46 H    0.961
    29   6 C    3.930 --    28 C    1.820    47 H    0.980    30 Si   0.919
    30  14 Si   3.645 --    29 C    0.919    49 H    0.881    48 H    0.881
                            31 C    0.868
    31   6 C    3.959 --     1 C    1.662    27 C    1.201    30 Si   0.868
    32   1 H    0.998 --     1 C    0.971
    33   1 H    0.998 --     5 C    0.964
    34   1 H    0.999 --     7 C    0.971
    35   1 H    0.995 --     8 C    0.941
    36   1 H    0.996 --    12 C    0.945
    37   1 H    0.996 --    12 C    0.950
    38   1 H    0.997 --    14 C    0.964
    39   1 H    0.976 --    15 N    0.950
    40   1 H    0.997 --    16 C    0.925
    41   1 H    0.998 --    19 C    0.966
    42   1 H    0.998 --    20 C    0.966
    43   1 H    0.998 --    22 C    0.971
    44   1 H    0.974 --    23 N    0.948
    45   1 H    0.999 --    24 C    0.971
    46   1 H    0.999 --    28 C    0.961
    47   1 H    0.999 --    29 C    0.980
    48   1 H    0.992 --    30 Si   0.881
    49   1 H    0.992 --    30 Si   0.881
 ---------------------------------------------------------------------------

Topologies differ in total number of bonds
Writing topology from bond orders to xtbtopo.mol

molecular dipole:
                 x           y           z       tot (Debye)
 q only:        1.580       1.388      -0.749
   full:        2.036       1.613      -1.105       7.175
molecular quadrupole (traceless):
                xx          xy          yy          xz          yz          zz
 q only:       23.722      -1.187      -8.315     -16.666      -4.054     -15.407
  q+dip:       24.837       1.540      -7.341     -26.015      -3.059     -17.496
   full:       24.202       1.973      -8.027     -24.493      -4.950     -16.175

           -------------------------------------------------
          |                Geometry Summary                 |
           -------------------------------------------------

      molecular mass/u    :      430.5964953
   center of mass at/Å    :       -0.0383726      -0.0197973       0.0146188
  moments of inertia/u·Å² :        0.2182481E+04   0.7993417E+04   0.9327866E+04
rotational constants/cm⁻¹ :        0.7724068E-02   0.2108939E-02   0.1807234E-02

 * 53 selected distances

     #   Z          #   Z                                           value/Å
     1   6 C        2  16 S                                       1.7290690
     2  16 S        3   6 C                                       1.7574281
     3   6 C        4   6 C                                       1.4282816
     4   6 C        5   6 C                                       1.3588135
     5   6 C        6   6 C                                       1.4332130
     6   6 C        7   6 C                                       1.3571176
     7   6 C        8   6 C                                       1.4925586
     8   6 C       10   6 C                                       1.5339098
     9   6 C       11   6 C                                       1.3475873
    11   6 C       12   6 C                                       1.4908362
    10   6 C       13   6 C                                       1.4141359
    13   6 C       14   6 C                                       1.3676794
    14   6 C       15   7 N                                       1.3541852
    15   7 N       16   6 C                                       1.4598475
    13   6 C       17   6 C                                       1.4598935
    16   6 C       17   6 C                                       1.4819402
    17   6 C       18   6 C                                       1.3710537
    18   6 C       19   6 C                                       1.4331947
    19   6 C       20   6 C                                       1.3459493
    21   6 C       22   6 C                                       1.3811526
    22   6 C       23   7 N                                       1.3550464
    23   7 N       24   6 C                                       1.3601336
    16   6 C       25   6 C                                       1.4978422
    21   6 C       25   6 C                                       1.4294676
    24   6 C       25   6 C                                       1.3689454
     9   6 C       26   6 C                                       1.4539948
    10   6 C       26   6 C                                       1.3870674
    18   6 C       26   6 C                                       1.4453962
     3   6 C       27   6 C                                       1.3786607
    27   6 C       28   6 C                                       1.4439600
    28   6 C       29   6 C                                       1.3436903
    29   6 C       30  14 Si                                      1.8827233 (max)
     1   6 C       31   6 C                                       1.3484265
    27   6 C       31   6 C                                       1.4362430
    30  14 Si      31   6 C                                       1.8788619
     1   6 C       32   1 H                                       1.0725433
     5   6 C       33   1 H                                       1.0762873
     7   6 C       34   1 H                                       1.0751775
     8   6 C       35   1 H                                       1.0947063
    12   6 C       36   1 H                                       1.0940454
    12   6 C       37   1 H                                       1.0933055
    14   6 C       38   1 H                                       1.0766009
    15   7 N       39   1 H                                       1.0046712 (min)
    16   6 C       40   1 H                                       1.1038386
    19   6 C       41   1 H                                       1.0820785
    20   6 C       42   1 H                                       1.0834014
    22   6 C       43   1 H                                       1.0720667
    23   7 N       44   1 H                                       1.0061643
    24   6 C       45   1 H                                       1.0722901
    28   6 C       46   1 H                                       1.0785680
    29   6 C       47   1 H                                       1.0787044
    30  14 Si      48   1 H                                       1.4649483
    30  14 Si      49   1 H                                       1.4645116

 * 7 distinct bonds (by element types)

   Z      Z             #   av. dist./Å        max./Å        min./Å
   1 H    6 C          14     1.0824010     1.1038386     1.0720667
   6 C    6 C          27     1.4159634     1.5339098     1.3436903
   1 H    7 N           2     1.0054177     1.0061643     1.0046712
   6 C    7 N           4     1.3823032     1.4598475     1.3541852
   1 H   14 Si          2     1.4647300     1.4649483     1.4645116
   6 C   14 Si          2     1.8807926     1.8827233     1.8788619
   6 C   16 S           2     1.7432486     1.7574281     1.7290690


optimized geometry written to: xtbopt.xyz


           -------------------------------------------------
          | TOTAL ENERGY              -77.636449610294 Eh   |
          | GRADIENT NORM               0.000328438599 Eh/α |
          | HOMO-LUMO GAP               1.423677800757 eV   |
           -------------------------------------------------

------------------------------------------------------------------------
 * finished run on 2024/06/14 at 03:01:04.198     
------------------------------------------------------------------------
 total:
 * wall-time:     0 d,  0 h,  0 min, 11.819 sec
 *  cpu-time:     0 d,  0 h,  1 min,  3.002 sec
 * ratio c/w:     5.331 speedup
 SCF:
 * wall-time:     0 d,  0 h,  0 min,  0.485 sec
 *  cpu-time:     0 d,  0 h,  0 min,  2.692 sec
 * ratio c/w:     5.556 speedup
 ANC optimizer:
 * wall-time:     0 d,  0 h,  0 min, 11.292 sec
 *  cpu-time:     0 d,  0 h,  1 min,  0.040 sec
 * ratio c/w:     5.317 speedup

