49
 energy: -77.597323434199 gnorm: 0.134951066787 xtb: 6.5.1 (fef0646)
C           -5.70801155320000        0.27301659120000       -1.59888304830000
S           -4.57408101750000       -1.01130198570000       -1.84978997690000
C           -3.60285522810000       -0.57085042120000       -0.46275090990000
C           -2.41988328720000       -1.30027902440000       -0.07813496440000
C           -1.90503303530000       -2.33701656840000       -0.78531006120000
C           -0.70827268640000       -2.83509353800000       -0.12809066490000
C            0.40821217430000       -3.52512327230000       -0.46465788010000
C            1.42566760670000       -3.32892096000000        0.64362967520000
C            0.79132930940000       -2.29272241730000        1.58005456960000
C            2.55613609570000       -2.32305588110000        0.44733867920000
C           -0.53016204090000       -2.13037322800000        1.15148155940000
C           -1.57019938300000       -1.04219523160000        1.15440016560000
C            3.72497230740000       -1.68863863260000       -0.07646907160000
C            4.70876711850000       -1.74584570200000       -1.12089120820000
N            5.36926766530000       -0.59990379520000       -1.15068763890000
C            4.94023251640000        0.35040440710000       -0.07278532080000
C            3.82134756750000       -0.42657761420000        0.55202436060000
C            2.73202206110000       -0.18457554740000        1.37286417010000
C            2.37590643410000        1.10489098900000        1.91808544960000
C            2.75200058220000        2.28953946500000        1.39544621800000
C            3.52919054890000        2.53317419300000        0.18037524540000
C            3.47542327170000        3.72232510770000       -0.53362855740000
N            4.31504733550000        3.63667527870000       -1.60236337720000
C            4.92445423980000        2.40992748180000       -1.59195901910000
C            4.46307752350000        1.70144992580000       -0.51095702070000
C            1.97396665260000       -1.41646560130000        1.34334917720000
C           -4.16767178310000        0.54118530590000        0.14371728270000
C           -3.74168286610000        1.31778074490000        1.33601838320000
C           -4.50485178360000        2.35679186790000        1.67438414480000
Si          -5.89564039260000        2.46326376640000        0.47650469000000
C           -5.36260453040000        1.00052274240000       -0.51743534970000
H           -6.56307456140000        0.46164161110000       -2.21820029760000
H           -2.29647176300000       -2.70559280560000       -1.71486086540000
H            0.58933400690000       -3.99014117860000       -1.41669166520000
H            1.72849410750000       -4.25539714970000        1.16251521920000
H           -1.09160645200000       -0.05885663780000        1.10000462100000
H           -2.17465259430000       -1.08863747710000        2.06637217640000
H            4.83762245990000       -2.55567435450000       -1.81602153180000
H            6.10386847310000       -0.27012030530000       -1.78199659090000
H            5.76011312690000        0.46426711180000        0.65095458610000
H            1.72018235520000        1.09643506980000        2.77291064520000
H            2.38527861320000        3.18085099580000        1.87809827900000
H            2.86516036970000        4.57662363540000       -0.28815585190000
H            4.47576946560000        4.36915378170000       -2.29935608480000
H            5.65494183480000        2.06888613500000       -2.30748870790000
H           -2.85459520620000        1.06044874040000        1.88904616890000
H           -4.32407158750000        3.01486584020000        2.50197024860000
H           -5.81064649360000        3.69729180740000       -0.33306935100000
H           -7.18996950380000        2.19391331500000        1.13769598740000
49
 energy: -77.622115770614 gnorm: 0.063345335074 xtb: 6.5.1 (fef0646)
C           -5.67602336062388        0.27180950387532       -1.57024950245302
S           -4.55350474070766       -1.02085334001998       -1.83680488610823
C           -3.58934827993725       -0.57053827332641       -0.44374874888441
C           -2.41512951788325       -1.31355464524276       -0.07470574513104
C           -1.90086473192085       -2.35538038191482       -0.77781483357158
C           -0.70418391406499       -2.84598464637557       -0.13609367182341
C            0.42180818535051       -3.52415066870236       -0.47440218078440
C            1.43089591951113       -3.34352855344500        0.62821510087579
C            0.78519933524961       -2.24705059069499        1.50305116553655
C            2.55971014055794       -2.32855520667215        0.46422260314675
C           -0.50607023115431       -2.06296785717816        1.08127298683061
C           -1.57918141103845       -1.02154414510004        1.15877933855420
C            3.70714051106026       -1.70166637949312       -0.09435808528201
C            4.66467971412303       -1.73292636108873       -1.11129679338979
N            5.34881761644168       -0.58461522765719       -1.13291705617987
C            4.92766845824409        0.34695185721220       -0.06022974182565
C            3.79749560946749       -0.42003557111119        0.53795804720095
C            2.73110316119420       -0.17764301802969        1.37729178622983
C            2.38349661587082        1.10444439598904        1.92456595611120
C            2.75580099848667        2.28487582862503        1.39343452103741
C            3.53369032712615        2.52585819305915        0.18823430911145
C            3.48218266491340        3.71106179705535       -0.52537886875931
N            4.31245375884545        3.62696188387370       -1.59632607054374
C            4.92275906633605        2.40910998468820       -1.58802080350938
C            4.46766477217574        1.69847233894490       -0.50663403081773
C            2.00031052662151       -1.42391766631999        1.36964387926477
C           -4.14778104252874        0.53831658663979        0.16119819827507
C           -3.73497386669617        1.30903011868894        1.32852534281403
C           -4.51036359044988        2.34963247406970        1.65913588430054
Si          -5.93819064033369        2.49441417976278        0.46954655219304
C           -5.33935994214133        1.00881653389791       -0.48826283033817
H           -6.52602294634775        0.43818587456326       -2.20724636421094
H           -2.29185724461503       -2.72385387454323       -1.70918574135267
H            0.59901613366054       -4.02922598772600       -1.40612201854787
H            1.72672405672580       -4.27094821653143        1.13655699855360
H           -1.11226618473937       -0.03486646455467        1.10369371793704
H           -2.17527931542898       -1.08402337949313        2.07470913342463
H            4.82994963579326       -2.53871393529069       -1.80580667069251
H            6.08982957931103       -0.29353856117079       -1.75788237011536
H            5.76685218471812        0.45458864119780        0.64526025205009
H            1.71949683750822        1.10058529234212        2.77772032181210
H            2.38554503804390        3.18467849723456        1.86654782240102
H            2.87700918707254        4.57017727559190       -0.30251853696908
H            4.46679366182847        4.35244704930602       -2.28496670253782
H            5.64418085516826        2.09279267647277       -2.31853124561766
H           -2.84906909989619        1.04709424344091        1.88153597383016
H           -4.31321881966381        2.99747914963474        2.49642975995699
H           -5.84462300010578        3.71587093490101       -0.33713651226962
H           -7.21921459692850        2.21839422171501        1.12771704686746
49
 energy: -77.630277565606 gnorm: 0.021769055795 xtb: 6.5.1 (fef0646)
C           -5.64986842698381        0.27075039992152       -1.54523873648999
S           -4.53850452052541       -1.02815142774328       -1.82057630802789
C           -3.57775333632987       -0.57022499429488       -0.42363827172796
C           -2.41057258759821       -1.32249560553119       -0.07625601465867
C           -1.89860070622793       -2.36672823136428       -0.77678741924502
C           -0.69089718832545       -2.83590867447934       -0.15507141107035
C            0.42841474325803       -3.52745689515556       -0.48961928494229
C            1.43135620384603       -3.33672392151394        0.60330953940230
C            0.78730914678004       -2.21070985438276        1.45528911735128
C            2.57574539213554       -2.33293078288959        0.48905841116864
C           -0.47817759235316       -2.01843452033715        1.03356850020025
C           -1.56890156041715       -1.00833792046171        1.14630633681476
C            3.69739345662846       -1.71047881662222       -0.11110527181618
C            4.63508880976903       -1.72500870856844       -1.10295316275509
N            5.33713369846436       -0.57373176479626       -1.11803143298192
C            4.92085466743819        0.34041617735843       -0.05057537726624
C            3.77958781939486       -0.41039308922697        0.52743064643900
C            2.73224337355997       -0.17210281540415        1.38407720553050
C            2.38871096757897        1.10362225174106        1.93480886272221
C            2.76178240206694        2.28053569300957        1.39723116557450
C            3.53993328327006        2.51906730939925        0.19984182803557
C            3.48603890328800        3.70179487453470       -0.51336164123929
N            4.30718462836666        3.61730362926670       -1.58748031953039
C            4.91973544104721        2.40557572249205       -1.58318385546297
C            4.47318306771603        1.69427441380822       -0.50032402692658
C            2.01646854182765       -1.42821190728305        1.38491320508823
C           -4.13061597537141        0.53738025281021        0.18086184118869
C           -3.73214582017757        1.30652742801634        1.33110422486871
C           -4.51734508697627        2.34726500079007        1.65040061842601
Si          -5.96695420445383        2.51369177092394        0.46296503766809
C           -5.31904317520040        1.01222209907111       -0.46520401972406
H           -6.48996622476055        0.41124249208655       -2.20211793453421
H           -2.30354045009829       -2.74842428005349       -1.69839509351298
H            0.58601853655435       -4.11259522412130       -1.38460779783338
H            1.71483913286396       -4.26466308633292        1.10479798548597
H           -1.13694284717283       -0.00471245959744        1.09475841668700
H           -2.15338694999354       -1.09568531245835        2.06648250209099
H            4.83127787285853       -2.51483064857025       -1.81026739110359
H            6.08228465119490       -0.32583979664832       -1.74436824930176
H            5.76594435586577        0.44427413200946        0.65143040208225
H            1.71931778169287        1.10506755310032        2.78634409429973
H            2.38543901477904        3.18782977478438        1.85670820959773
H            2.88627505125631        4.56860113795198       -0.31574024272279
H            4.45520980253310        4.33924096100218       -2.27068437109633
H            5.63081554630495        2.11720537575194       -2.33361423565463
H           -2.84709613273218        1.04853625412123        1.88708710165946
H           -4.30261901012777        2.98558476300888        2.49389615724903
H           -5.89744032227411        3.73263974436781       -0.33947170393288
H           -7.25346610004003        2.25609810760889        1.10460885052653
49
 energy: -77.632205054168 gnorm: 0.016256120469 xtb: 6.5.1 (fef0646)
C           -5.64433038008634        0.26811697122292       -1.53604338609243
S           -4.53825375063516       -1.03401836216239       -1.80864200054656
C           -3.57780622273605       -0.57196102663629       -0.41241569396333
C           -2.41101897358140       -1.32439738391355       -0.08085624879713
C           -1.90623656765428       -2.37576044827879       -0.77763977929826
C           -0.68647138820795       -2.82813375906009       -0.16945376654377
C            0.42554028918361       -3.53692307606334       -0.49496250761953
C            1.43485164814659       -3.33321318371404        0.58778774536463
C            0.79774276016766       -2.19948240176136        1.43518935996349
C            2.58633162147979       -2.33391668316784        0.49473868509430
C           -0.46075776526192       -1.98985791075347        1.00354590276627
C           -1.55541340339586       -0.99076405011633        1.12581164550543
C            3.69649728496786       -1.71141017186172       -0.12048823625521
C            4.63463091419418       -1.72084518010071       -1.10915024333716
N            5.34104936441159       -0.56835444817190       -1.11605744327704
C            4.92712505160225        0.33733439183144       -0.04651160065484
C            3.78229517696002       -0.40752196803404        0.52690353298180
C            2.74526657876854       -0.17585281684972        1.39571908298256
C            2.39824241838552        1.09867649505591        1.94793682978166
C            2.76877350675246        2.27546487160930        1.40679111522325
C            3.54632004557752        2.51530228657339        0.21071154956018
C            3.48542047476683        3.69779505658059       -0.50207563164808
N            4.29933193648933        3.61285205540265       -1.58112205079092
C            4.91635959606144        2.40318076214813       -1.58065189390743
C            4.48017638197658        1.69329027069559       -0.49345838180514
C            2.03593911761897       -1.43805660358518        1.40160920380144
C           -4.12814236657758        0.53810097702699        0.19119463268007
C           -3.73637444022819        1.31409851209214        1.33986615887180
C           -4.52661843095867        2.35513790345502        1.64992736441236
Si          -5.97683512313742        2.51811842007038        0.45739096304868
C           -5.31578600934971        1.01181182300041       -0.45885356692902
H           -6.47608762837512        0.39461149388903       -2.20373863089523
H           -2.32781032848157       -2.77543781256422       -1.68505829010907
H            0.56492329853632       -4.18023518626439       -1.35747775644982
H            1.71083690737287       -4.26298721755479        1.09013256522842
H           -1.15306311104311        0.02629987886970        1.07239978483440
H           -2.12525871324649       -1.09530130654163        2.05407200997908
H            4.84112740884441       -2.49371496012673       -1.83189406819361
H            6.09126609861034       -0.34370871594952       -1.74314485630289
H            5.76693333262752        0.43869514932384        0.66305431536847
H            1.72833059751385        1.10212178162274        2.79887964886491
H            2.38772235301162        3.18458164234604        1.85894351919724
H            2.88756741804278        4.56801511717660       -0.31546723952320
H            4.44065290324902        4.33537432045471       -2.26522906601665
H            5.61856846438934        2.12927361765835       -2.34505947547153
H           -2.85448342628842        1.06111217651058        1.90424445988994
H           -4.30678687627417        2.99037586536302        2.49410318383835
H           -5.94064481170236        3.74020853237993       -0.34619273568762
H           -7.27989515828702        2.28387088197258        1.07929797747685
49
 energy: -77.633202312566 gnorm: 0.010321456013 xtb: 6.5.1 (fef0646)
C           -5.64928001519927        0.26475675438904       -1.53097940837077
S           -4.54529962096460       -1.03937660181430       -1.79645956217159
C           -3.58362406288075       -0.57322530419699       -0.40280585345569
C           -2.41427800131977       -1.32352814708662       -0.08318937511203
C           -1.91880321649787       -2.38511272572738       -0.77309942781176
C           -0.68412801886232       -2.81973540848564       -0.18029339969668
C            0.41863132545129       -3.54905896340346       -0.49534526430030
C            1.43861111392897       -3.32976331116924        0.57500266657448
C            0.81054116594499       -2.19126987708519        1.41864697377705
C            2.59683978253640       -2.33575126621138        0.49013820156291
C           -0.44270278653383       -1.96293193218301        0.97635522142620
C           -1.53851763226862       -0.96964319714621        1.10272265088048
C            3.69952302272451       -1.71077370944791       -0.13165070346452
C            4.64300040162002       -1.71691690474979       -1.11951689044416
N            5.35037282689754       -0.56379786588807       -1.11704452968707
C            4.94066163900391        0.33574196417010       -0.04359879815891
C            3.79415302116556       -0.40916720631757        0.52654632799609
C            2.76619464931542       -0.18427853077429        1.40701635595264
C            2.41745849469349        1.08860788108823        1.96489558492016
C            2.78343589940221        2.26706255572029        1.42313400389493
C            3.55656909372725        2.51121458872587        0.22466052063637
C            3.48299600931579        3.69313188971780       -0.48848955635266
N            4.28796030715614        3.60902508951011       -1.57490779225178
C            4.91200349054131        2.40145560194388       -1.57902665914465
C            4.48974270473297        1.69317091574530       -0.48581261574683
C            2.05098344861466       -1.44360474699486        1.40265227422061
C           -4.13388732093625        0.53987715825646        0.19801540454771
C           -3.74991243921986        1.32372942332760        1.34842900146893
C           -4.54328355779513        2.36636637402969        1.64750778147346
Si          -5.98781629310144        2.52101282859268        0.44797898431338
C           -5.32136118617346        1.01143875562730       -0.45730777024842
H           -6.47424265386817        0.38024049606698       -2.20652682228660
H           -2.35914086353808       -2.80599520044378       -1.66272647820584
H            0.54074177087813       -4.23402460843077       -1.32463096816787
H            1.71275612356181       -4.25846817758288        1.08266457399868
H           -1.16232889309229        0.05657843949638        1.03980077048445
H           -2.08994791780112       -1.08258041694958        2.04182299442497
H            4.85349821275154       -2.47268364261397       -1.85763841821931
H            6.10792774231604       -0.35849588593823       -1.74241597720284
H            5.77440511217076        0.43406923885394        0.67380091017657
H            1.74664327652872        1.09105884345627        2.81436959670808
H            2.39597980531443        3.17505098302930        1.87093954825663
H            2.88554271673697        4.56429482743719       -0.30644352919389
H            4.42004238502274        4.33283789221789       -2.26127513293550
H            5.60478275934481        2.13865615866925       -2.35566798581783
H           -2.87262465471172        1.07601200353339        1.92352638836539
H           -4.32310108661509        3.00216908229063        2.49033689737901
H           -5.97274333192425        3.74306676113165       -0.36054039095850
H           -7.30322667389449        2.30152370471378        1.05503636256708
49
 energy: -77.633731890767 gnorm: 0.008287756982 xtb: 6.5.1 (fef0646)
C           -5.66088049500511        0.25919085455473       -1.52926809917072
S           -4.55600787255150       -1.04572868398862       -1.78684957453197
C           -3.59367780140677       -0.57427505117431       -0.39573705699682
C           -2.41943382453452       -1.31998688878545       -0.08198137647788
C           -1.93141815189518       -2.39018326955753       -0.76464439385268
C           -0.68455371450864       -2.81092681329064       -0.18572294469779
C            0.41002275400132       -3.55656703808721       -0.49335398285163
C            1.43959676891242       -3.32540813439267        0.56629564469239
C            0.81967328863270       -2.18400264050514        1.40671658005370
C            2.60401894020614       -2.33578875512463        0.47769613845550
C           -0.42916621316362       -1.94022853807035        0.95589192591245
C           -1.52468570007956       -0.94780471834652        1.08446789996877
C            3.70586160290606       -1.70902462960914       -0.14325923119713
C            4.65338359337412       -1.71259313783879       -1.13044583950858
N            5.36233712808551       -0.56028855298414       -1.11990268364730
C            4.95664211734734        0.33491808460709       -0.04263029710994
C            3.80998433285994       -0.41337442943713        0.52480073848103
C            2.78744504518912       -0.19252541774637        1.41203345146240
C            2.43994184263980        1.07726444520817        1.97926088519508
C            2.80150514141077        2.25823498382019        1.44054461805706
C            3.56798203973687        2.50706875096096        0.23805105421031
C            3.48124872144777        3.68815591474317       -0.47518219704491
N            4.27651981132043        3.60577668739802       -1.56958035057226
C            4.90713320887027        2.40043838406706       -1.57845177112918
C            4.49899385385462        1.69272241095244       -0.47966256827691
C            2.06504578146768       -1.44683989238476        1.39934052332793
C           -4.14586538821812        0.54086900581439        0.20095915261824
C           -3.76789114856086        1.33070776894330        1.35164733419898
C           -4.56271926975076        2.37490212846422        1.64195728297668
Si          -6.00059686273286        2.52264257669654        0.43649198542027
C           -5.33290251651903        1.00981274201137       -0.45880938361926
H           -6.48270729396147        0.36852725601684       -2.20854822775243
H           -2.38643698499081       -2.82841126605618       -1.63829287474075
H            0.51629776519137       -4.27033055130185       -1.29566533030847
H            1.71551403811907       -4.25116848054384        1.08020305189585
H           -1.16268658390723        0.08105762685424        1.00666519985423
H           -2.05914625663678       -1.05749797094690        2.03389116287068
H            4.86311125582714       -2.45735555685827       -1.87849272948256
H            6.12792799843550       -0.36703431543947       -1.74011962713488
H            5.78779738691969        0.43153097552585        0.67757530650907
H            1.77413371168625        1.07528120739521        2.83204884449692
H            2.41357166014436        3.16344553615375        1.89196623731030
H            2.88269336476865        4.55789678314845       -0.29088656862701
H            4.39892587196744        4.33031537509477       -2.25796179330306
H            5.59202920178872        2.14336204052510       -2.36328516460546
H           -2.89518999860068        1.08573447906283        1.93554648773825
H           -4.34621662850390        3.01336161065076        2.48346125886205
H           -5.98630728714521        3.74057441669807       -0.37869884761494
H           -7.31910016023864        2.30551926820219        1.03852683628689
49
 energy: -77.634200044258 gnorm: 0.007618755163 xtb: 6.5.1 (fef0646)
C           -5.67798064637800        0.24829608358598       -1.52889122204239
S           -4.57028796978546       -1.05684998588918       -1.77683944803661
C           -3.60797629487190       -0.57602337776995       -0.38893484129970
C           -2.42680993521168       -1.31415875808135       -0.07766510543693
C           -1.94623546969791       -2.39296957741503       -0.75176673028755
C           -0.68820423108283       -2.80089710488213       -0.18780163757617
C            0.39770994113878       -3.56159054090450       -0.49005826557949
C            1.43743551298833       -3.31803587091684        0.55715630545399
C            0.82749843361149       -2.17184636550964        1.39347305906647
C            2.60995885651377       -2.33362918950773        0.45872230187037
C           -0.41654112305102       -1.91472845540965        0.93581278044566
C           -1.51153672058637       -0.92061314515004        1.06651179534931
C            3.71546204783470       -1.70610927682915       -0.15740518741216
C            4.66533232170866       -1.70699178498132       -1.14430875612577
N            5.37807363989344       -0.55709687202979       -1.12545228745506
C            4.97704192879270        0.33332673389324       -0.04307981622496
C            3.83103388048060       -0.41920686713756        0.52194847712077
C            2.81271170645647       -0.20000320787026        1.41366650896074
C            2.47236614639006        1.06435177310126        1.99743269507036
C            2.83015224742933        2.24874252048822        1.46516190212168
C            3.58390671634346        2.50172755940668        0.25485970980874
C            3.48101914098835        3.68128970965263       -0.45853463584421
N            4.26335725947943        3.60168727374382       -1.56292814002942
C            4.90053297743569        2.39921937736945       -1.57830550328971
C            4.50996093654951        1.69102191578449       -0.47333259661535
C            2.07851668541129       -1.44507884631090        1.38699510589569
C           -4.16385166385200        0.54058137974350        0.20184545599920
C           -3.79157184061037        1.33540965027049        1.35143273837619
C           -4.58728874235734        2.38111916585685        1.63333428340057
Si          -6.01811386489179        2.52242035400076        0.42140313755835
C           -5.35054691499175        1.00473710760379       -0.46215282510707
H           -6.49908476615793        0.35321149854372       -2.20952397711320
H           -2.41527856578291       -2.84802187748722       -1.60831643637586
H            0.48445764234789       -4.30473764667201       -1.26406657122010
H            1.71755495654288       -4.23863956994204        1.07900635047688
H           -1.15763814062766        0.10780567094754        0.96539972393686
H           -2.02681187233150       -1.01691018224664        2.02792083264962
H            4.87161634271017       -2.44416914115088       -1.89975641761122
H            6.15431691038309       -0.37314557272215       -1.73584742884443
H            5.80873041930286        0.42949807709628        0.67563064948018
H            1.81409467716717        1.05430070084113        2.85585169974902
H            2.44613729601843        3.15047283247969        1.92596235246167
H            2.88013828566803        4.54775980212277       -0.26647125965638
H            4.37351672462083        4.32644309301248       -2.25340705715985
H            5.57646236368540        2.14489770226765       -2.37101202403138
H           -2.92310964575796        1.09216157797346        1.94251725180874
H           -4.37714665540520        3.02423639104246        2.47311240945890
H           -5.99465050480492        3.73363303790127       -0.40276943286989
H           -7.33668235545676        2.30506880918599        1.02207676332575
49
 energy: -77.634558092208 gnorm: 0.006480614498 xtb: 6.5.1 (fef0646)
C           -5.69675170636986        0.23200460583936       -1.52869761911800
S           -4.58467821224010       -1.07187214749825       -1.76802945073636
C           -3.62306294165520       -0.57855910603182       -0.38367400211493
C           -2.43484409474541       -1.30739194369190       -0.07214700886433
C           -1.96090160039892       -2.39394994559523       -0.73765536624246
C           -0.69507241458619       -2.79218611882289       -0.18614200151035
C            0.38426607900977       -3.56266962950890       -0.48643240322624
C            1.43308149463725       -3.30879563339660        0.54821514083329
C            0.83224068981486       -2.15676417687809        1.38084908477915
C            2.61267158522011       -2.32815338442947        0.43827663472026
C           -0.40831965325748       -1.89090893199022        0.91977022385264
C           -1.50191051258718       -0.89311880758323        1.05069698906950
C            3.72561656087034       -1.70270749192765       -0.17105221641998
C            4.67488741393440       -1.70144652173507       -1.15854652593149
N            5.39310075667300       -0.55497989851388       -1.13348904700589
C            4.99750971590653        0.33048909934953       -0.04479802215467
C            3.85245655126158       -0.42453510780713        0.51921479226793
C            2.83623178842186       -0.20431920868718        1.41253955895409
C            2.50801798912425        1.05358476237229        2.01636940166059
C            2.86502071377449        2.24132909784950        1.49265211682652
C            3.60270317341834        2.49648467028896        0.27269940584261
C            3.48502743737293        3.67453878847691       -0.44021621675948
N            4.25184558986008        3.59717240532629       -1.55562163390025
C            4.89339484840071        2.39737932023349       -1.57855860008661
C            4.52132610668112        1.68817937050232       -0.46754214412635
C            2.09064376390943       -1.44011521657992        1.37307982023188
C           -4.18354509089036        0.53868239387136        0.20070776868100
C           -3.81507848270374        1.33753292650229        1.34759722174399
C           -4.61212091829692        2.38358729374972        1.62339597112263
Si          -6.03814998824620        2.51941162341594        0.40576511502439
C           -5.37082971022848        0.99568196450205       -0.46617887813534
H           -6.51970018619652        0.33353378341350       -2.20813661386801
H           -2.44175065700159       -2.86310298005472       -1.57899232526609
H            0.45297557787112       -4.32721671913458       -1.23736856813160