      -----------------------------------------------------------      
     |                   =====================                   |     
     |                           x T B                           |     
     |                   =====================                   |     
     |                         S. Grimme                         |     
     |          Mulliken Center for Theoretical Chemistry        |     
     |                    University of Bonn                     |     
      -----------------------------------------------------------      

   * xtb version 6.7.1 (edcfbbe) compiled by 'albert@albert-system' on 2024-07-22

   xtb is free software: you can redistribute it and/or modify it under
   the terms of the GNU Lesser General Public License as published by
   the Free Software Foundation, either version 3 of the License, or
   (at your option) any later version.
   
   xtb is distributed in the hope that it will be useful,
   but WITHOUT ANY WARRANTY; without even the implied warranty of
   MERCHANTABILITY or FITNESS FOR A PARTICULAR PURPOSE.  See the
   GNU Lesser General Public License for more details.
   
   Cite this work as:
   * C. Bannwarth, E. Caldeweyher, S. Ehlert, A. Hansen, P. Pracht,
     J. Seibert, S. Spicher, S. Grimme, WIREs Comput. Mol. Sci., 2020, 11,
     e01493. DOI: 10.1002/wcms.1493
   
   for GFN2-xTB:
   * C. Bannwarth, S. Ehlert and S. Grimme., J. Chem. Theory Comput., 2019,
     15, 1652-1671. DOI: 10.1021/acs.jctc.8b01176
   for GFN1-xTB:
   * S. Grimme, C. Bannwarth, P. Shushkov, J. Chem. Theory Comput., 2017,
     13, 1989-2009. DOI: 10.1021/acs.jctc.7b00118
   for GFN0-xTB:
   * P. Pracht, E. Caldeweyher, S. Ehlert, S. Grimme, ChemRxiv, 2019, preprint.
     DOI: 10.26434/chemrxiv.8326202.v1
   for GFN-FF:
   * S. Spicher and S. Grimme, Angew. Chem. Int. Ed., 2020, 59, 15665-15673.
     DOI: 10.1002/anie.202004239
   
   for ALPB and GBSA implicit solvation:
   * S. Ehlert, M. Stahn, S. Spicher, S. Grimme, J. Chem. Theory Comput.,
     2021, 17, 4250-4261. DOI: 10.1021/acs.jctc.1c00471
   
   for ddCOSMO and CPCM-X implicit solvation:
   * M. Stahn, S. Ehlert, S. Grimme, J. Phys. Chem. A,
     2023, XX, XXXX-XXXX. DOI: 10.1021/acs.jpca.3c04382
   
   for DFT-D4:
   * E. Caldeweyher, C. Bannwarth and S. Grimme, J. Chem. Phys., 2017,
     147, 034112. DOI: 10.1063/1.4993215
   * E. Caldeweyher, S. Ehlert, A. Hansen, H. Neugebauer, S. Spicher,
     C. Bannwarth and S. Grimme, J. Chem. Phys., 2019, 150, 154122.
     DOI: 10.1063/1.5090222
   * E. Caldeweyher, J.-M. Mewes, S. Ehlert and S. Grimme, Phys. Chem. Chem. Phys.
     2020, 22, 8499-8512. DOI: 10.1039/D0CP00502A
   
   for sTDA-xTB:
   * S. Grimme and C. Bannwarth, J. Chem. Phys., 2016, 145, 054103.
     DOI: 10.1063/1.4959605
   
   in the mass-spec context:
   * V. Asgeirsson, C. Bauer and S. Grimme, Chem. Sci., 2017, 8, 4879.
     DOI: 10.1039/c7sc00601b
   * J. Koopman and S. Grimme, ACS Omega 2019, 4, 12, 15120-15133.
     DOI: 10.1021/acsomega.9b02011
   
   for metadynamics refer to:
   * S. Grimme, J. Chem. Theory Comput., 2019, 155, 2847-2862
     DOI: 10.1021/acs.jctc.9b00143
   
   for SPH calculations refer to:
   * S. Spicher and S. Grimme, J. Chem. Theory Comput., 2021, 17, 1701-1714
     DOI: 10.1021/acs.jctc.0c01306
   
   for ONIOM refer to:
   * C. Plett, A. Katbashev, S. Ehlert, S. Grimme, M. Bursch,
     Phys. Chem. Chem. Phys., 2023, 25, 17860-17868. DOI: 10.1039/D3CP02178E
   
   for DIPRO refer to:
   * J. Kohn, N. Gildemeister, S. Grimme, D. Fazzi, A. Hansen,
     J. Chem. Phys., 2023, just accepted.
   
   for PTB refer to:
   * S. Grimme, M. Mueller, A. Hansen, J. Chem. Phys., 2023, 158, 124111.
     DOI: 10.1063/5.0137838
   
   with help from (in alphabetical order)
   P. Atkinson, C. Bannwarth, F. Bohle, G. Brandenburg, E. Caldeweyher
   M. Checinski, S. Dohm, S. Ehlert, S. Ehrlich, I. Gerasimov, C. Hölzer
   A. Katbashev, J. Kohn, J. Koopman, C. Lavigne, S. Lehtola, F. März, M. Müller,
   F. Musil, H. Neugebauer, J. Pisarek, C. Plett, P. Pracht, F. Pultar,
   J. Seibert, P. Shushkov, S. Spicher, M. Stahn, M. Steiner, T. Strunk,
   J. Stückrath, T. Rose, and J. Unsleber
   
 * started run on 2024/08/07 at 20:52:37.818     
   ID    Z sym.   atoms
    1    6 C      1-6
    2    8 O      7
    3    1 H      8-15

           -------------------------------------------------
          |                Calculation Setup                |
           -------------------------------------------------

          program call               : xtb crest_best.xyz --gfn 2 --alpb toluene --opt vtight -c 0 --iterations 40
          coordinate file            : crest_best.xyz
          omp threads                :                     8


           -------------------------------------------------
          |                 G F N 2 - x T B                 |
           -------------------------------------------------

        Reference                      10.1021/acs.jctc.8b01176
      * Hamiltonian:
        H0-scaling (s, p, d)           1.850000    2.230000    2.230000
        zeta-weighting                 0.500000
      * Dispersion:
        s8                             2.700000
        a1                             0.520000
        a2                             5.000000
        s9                             5.000000
      * Repulsion:
        kExp                           1.500000    1.000000
        rExp                           1.000000
      * Coulomb:
        alpha                          2.000000
        third order                    shell-resolved
        anisotropic                    true
        a3                             3.000000
        a5                             4.000000
        cn-shift                       1.200000
        cn-exp                         4.000000
        max-rad                        5.000000

      * Solvation model:               ALPB
        Solvent                        toluene
        Parameter file                 internal GFN2-xTB/ALPB
        Dielectric constant                7.0000E+00
        Reference state                gsolv [1 M gas/solution]
        Free energy shift                  2.2081E-03 Eh       1.3856E+00 kcal/mol
        Temperature                        2.9815E+02 K
        Density                            8.6700E-01 kg/L
        Solvent mass                       7.8110E+01 g/mol
        Interaction kernel             P16
        Born radius scaling (c1)           1.7172E+00
        Born radii integrator          GBOBC
        Born offset                        0.0000E+00 a0       0.0000E+00 AA
        H-bond correction              false
        Ion screening                  false
        Surface tension                    1.0000E-05 Eh       1.5569E+01 dyn/cm
        Grid points                               230 per atom

          ...................................................
          :                      SETUP                      :
          :.................................................:
          :  # basis functions                  36          :
          :  # atomic orbitals                  36          :
          :  # shells                           22          :
          :  # electrons                        38          :
          :  max. iterations                    40          :
          :  Hamiltonian                  GFN2-xTB          :
          :  restarted?                      false          :
          :  GBSA solvation                   true          :
          :  PC potential                    false          :
          :  electronic temp.          300.0000000     K    :
          :  accuracy                    1.0000000          :
          :  -> integral cutoff          0.2500000E+02      :
          :  -> integral neglect         0.1000000E-07      :
          :  -> SCF convergence          0.1000000E-05 Eh   :
          :  -> wf. convergence          0.1000000E-03 e    :
          :  Broyden damping             0.4000000          :
          :  net charge                          0          :
          :  unpaired electrons                  0          :
          ...................................................

 iter      E             dE          RMSdq      gap      omega  full diag
   1    -21.2306662 -0.212307E+02  0.570E+00    4.08       0.0  T
   2    -21.2674486 -0.367824E-01  0.313E+00    3.21       1.0  T
   3    -21.2627536  0.469500E-02  0.163E+00    3.62       1.0  T
   4    -21.2705179 -0.776426E-02  0.502E-01    3.35       1.0  T
   5    -21.2738704 -0.335256E-02  0.138E-01    3.32       1.0  T
   6    -21.2740335 -0.163058E-03  0.506E-02    3.33       1.0  T
   7    -21.2740395 -0.602512E-05  0.167E-02    3.33       1.5  T
   8    -21.2740396 -0.127789E-06  0.337E-03    3.33       7.7  T
   9    -21.2740397 -0.454134E-07  0.148E-03    3.33      17.4  T
  10    -21.2740397 -0.432917E-08  0.639E-04    3.33      40.4  T
  11    -21.2740397 -0.125157E-08  0.158E-04    3.33     163.3  T

   *** convergence criteria satisfied after 11 iterations ***

         #    Occupation            Energy/Eh            Energy/eV
      -------------------------------------------------------------
         1        2.0000           -0.7270966             -19.7853
       ...           ...                  ...                  ...
        13        2.0000           -0.4908845             -13.3576
        14        2.0000           -0.4825142             -13.1299
        15        2.0000           -0.4698901             -12.7864
        16        2.0000           -0.4543892             -12.3646
        17        2.0000           -0.4177409             -11.3673
        18        2.0000           -0.3963834             -10.7861
        19        2.0000           -0.3911803             -10.6446 (HOMO)
        20                         -0.2688609              -7.3161 (LUMO)
        21                         -0.1573444              -4.2816
        22                         -0.1529965              -4.1632
        23                          0.0675728               1.8388
        24                          0.0878980               2.3918
       ...                                ...                  ...
        36                          1.3762014              37.4483
      -------------------------------------------------------------
                  HL-Gap            0.1223194 Eh            3.3285 eV
             Fermi-level           -0.3300206 Eh           -8.9803 eV

 SCC (total)                   0 d,  0 h,  0 min,  0.012 sec
 SCC setup                      ...        0 min,  0.000 sec (  3.224%)
 Dispersion                     ...        0 min,  0.000 sec (  1.569%)
 classical contributions        ...        0 min,  0.000 sec (  0.176%)
 integral evaluation            ...        0 min,  0.001 sec (  8.251%)
 iterations                     ...        0 min,  0.009 sec ( 74.229%)
 molecular gradient             ...        0 min,  0.001 sec ( 11.113%)
 printout                       ...        0 min,  0.000 sec (  1.117%)

         :::::::::::::::::::::::::::::::::::::::::::::::::::::
         ::                     SUMMARY                     ::
         :::::::::::::::::::::::::::::::::::::::::::::::::::::
         :: total energy             -20.912208658997 Eh    ::
         :: total w/o Gsasa/hb       -20.903518496101 Eh    ::
         :: gradient norm              0.083554441617 Eh/a0 ::
         :: HOMO-LUMO gap              3.328480178686 eV    ::
         ::.................................................::
         :: SCC energy               -21.274028560766 Eh    ::
         :: -> isotropic ES            0.027114743320 Eh    ::
         :: -> anisotropic ES          0.001301619084 Eh    ::
         :: -> anisotropic XC          0.011225948779 Eh    ::
         :: -> dispersion             -0.008393518641 Eh    ::
         :: -> Gsolv                  -0.010656332196 Eh    ::
         ::    -> Gelec               -0.001966169300 Eh    ::
         ::    -> Gsasa               -0.010898306034 Eh    ::
         ::    -> Ghb                  0.000000000000 Eh    ::
         ::    -> Gshift               0.002208143139 Eh    ::
         :: repulsion energy           0.361819901769 Eh    ::
         :: add. restraining           0.000000000000 Eh    ::
         :: total charge              -0.000000000000 e     ::
         :::::::::::::::::::::::::::::::::::::::::::::::::::::

      ----------------------------------------------------------- 
     |                   =====================                   |
     |                        A N C O P T                        |
     |                   =====================                   |
     |               Approximate Normal Coordinate               |
     |                Rational Function Optimizer                |
      ----------------------------------------------------------- 
      ----------------------------------------------------------- 
     |                   =====================                   |
     |                        A N C O P T                        |
     |                   =====================                   |
     |               Approximate Normal Coordinate               |
     |                Rational Function Optimizer                |
      ----------------------------------------------------------- 

          ...................................................
          :                      SETUP                      :
          :.................................................:
          :   optimization level         verytight          :
          :   max. optcycles                   300          :
          :   ANC micro-cycles                  20          :
          :   degrees of freedom                39          :
          :.................................................:
          :   RF solver                   davidson          :
          :   write xtbopt.log                true          :
          :   linear?                        false          :
          :   energy convergence         0.1000000E-06 Eh   :
          :   grad. convergence          0.2000000E-03 Eh/α :
          :   maxmium RF displ.          1.0000000          :
          :   Hlow (freq-cutoff)         0.1000000E-01      :
          :   Hmax (freq-cutoff)         5.0000000          :
          :   S6 in model hess.         20.0000000          :
          ...................................................

generating ANC from exact Hessian ...
Using Lindh-Hessian (1995)
 Shifting diagonal of input Hessian by   9.021206518798076E-003
 Lowest  eigenvalues of input Hessian
    0.000000    0.000000    0.000000    0.000000    0.000000    0.000000
    0.010000    0.010588    0.010849    0.018626    0.020291    0.023229
    0.029033    0.040919    0.054977    0.061399    0.072764    0.079153
 Highest eigenvalues
    1.168609    1.195140    1.375396    1.404751    2.228859    2.586739
 

........................................................................
.............................. CYCLE    1 ..............................
........................................................................

 iter      E             dE          RMSdq      gap      omega  full diag
   1    -21.2740397 -0.212740E+02  0.444E-05    3.33       0.0  T
   2    -21.2740397 -0.161648E-11  0.254E-05    3.33    1015.7  T
   3    -21.2740397  0.149214E-11  0.222E-05    3.33    1162.9  T
     SCC iter.                  ...        0 min,  0.001 sec
     gradient                   ...        0 min,  0.002 sec
 * total energy  :   -20.9122087 Eh     change       -0.2662013E-09 Eh
   gradient norm :     0.0835544 Eh/α   predicted     0.0000000E+00 (-100.00%)
   displ. norm   :     0.1155413 α      lambda       -0.4835346E-02
   maximum displ.:     0.0460521 α      in ANC's #24, #11, #10, ...

........................................................................
.............................. CYCLE    2 ..............................
........................................................................

 iter      E             dE          RMSdq      gap      omega  full diag
   1    -21.2755473 -0.212755E+02  0.176E-01    3.31       0.0  T
   2    -21.2755599 -0.126024E-04  0.106E-01    3.34       1.0  T
   3    -21.2755151  0.447497E-04  0.649E-02    3.34       1.0  T
   4    -21.2755646 -0.494357E-04  0.126E-02    3.34       2.0  T
   5    -21.2755665 -0.195687E-05  0.303E-03    3.35       8.5  T
   6    -21.2755666 -0.574812E-07  0.166E-03    3.34      15.5  T
   7    -21.2755666 -0.445691E-08  0.787E-04    3.34      32.8  T
   8    -21.2755666 -0.738318E-09  0.175E-04    3.34     147.9  T
     SCC iter.                  ...        0 min,  0.003 sec
     gradient                   ...        0 min,  0.001 sec
 * total energy  :   -20.9151144 Eh     change       -0.2905702E-02 Eh
   gradient norm :     0.0185282 Eh/α   predicted    -0.2449949E-02 ( -15.68%)
   displ. norm   :     0.0915251 α      lambda       -0.7884449E-03
   maximum displ.:     0.0437749 α      in ANC's #4, #5, #24, ...

........................................................................
.............................. CYCLE    3 ..............................
........................................................................

 iter      E             dE          RMSdq      gap      omega  full diag
   1    -21.2715652 -0.212716E+02  0.121E-01    3.36       0.0  T
   2    -21.2715680 -0.281347E-05  0.712E-02    3.36       1.0  T
   3    -21.2715606  0.738035E-05  0.257E-02    3.35       1.0  T
   4    -21.2715681 -0.744122E-05  0.817E-03    3.35       3.2  T
   5    -21.2715690 -0.891984E-06  0.185E-03    3.36      14.0  T
   6    -21.2715690 -0.755974E-08  0.774E-04    3.36      33.4  T
   7    -21.2715690 -0.114282E-08  0.348E-04    3.36      74.1  T
     SCC iter.                  ...        0 min,  0.003 sec
     gradient                   ...        0 min,  0.002 sec
 * total energy  :   -20.9155393 Eh     change       -0.4249161E-03 Eh
   gradient norm :     0.0076205 Eh/α   predicted    -0.3975236E-03 (  -6.45%)
   displ. norm   :     0.0542072 α      lambda       -0.1459269E-03
   maximum displ.:     0.0339184 α      in ANC's #3, #7, #6, ...

........................................................................
.............................. CYCLE    4 ..............................
........................................................................

 iter      E             dE          RMSdq      gap      omega  full diag
   1    -21.2714872 -0.212715E+02  0.586E-02    3.37       0.0  T
   2    -21.2714883 -0.106379E-05  0.350E-02    3.37       1.0  T
   3    -21.2714871  0.121456E-05  0.116E-02    3.37       2.2  T
   4    -21.2714882 -0.109545E-05  0.496E-03    3.37       5.2  T
   5    -21.2714885 -0.338174E-06  0.105E-03    3.37      24.6  T
   6    -21.2714885 -0.409494E-08  0.392E-04    3.37      65.8  T
   7    -21.2714885 -0.442526E-09  0.187E-04    3.37     138.3  T
     SCC iter.                  ...        0 min,  0.004 sec
     gradient                   ...        0 min,  0.001 sec
 * total energy  :   -20.9155860 Eh     change       -0.4669654E-04 Eh
   gradient norm :     0.0041286 Eh/α   predicted    -0.7317664E-04 (  56.71%)
   displ. norm   :     0.0347503 α      lambda       -0.5451142E-04
   maximum displ.:     0.0223135 α      in ANC's #4, #3, #5, ...

........................................................................
.............................. CYCLE    5 ..............................
........................................................................

 iter      E             dE          RMSdq      gap      omega  full diag
   1    -21.2726545 -0.212727E+02  0.395E-02    3.38       0.0  T
   2    -21.2726547 -0.234762E-06  0.236E-02    3.38       1.1  T
   3    -21.2726545  0.200647E-06  0.456E-03    3.37       5.7  T
   4    -21.2726547 -0.198788E-06  0.214E-03    3.37      12.1  T
   5    -21.2726548 -0.545575E-07  0.659E-04    3.37      39.2  T
   6    -21.2726548 -0.133499E-08  0.320E-04    3.37      80.8  T
     SCC iter.                  ...        0 min,  0.002 sec
     gradient                   ...        0 min,  0.001 sec
 * total energy  :   -20.9156220 Eh     change       -0.3601592E-04 Eh
   gradient norm :     0.0020745 Eh/α   predicted    -0.2728914E-04 ( -24.23%)
   displ. norm   :     0.0511418 α      lambda       -0.2836972E-04
   maximum displ.:     0.0320020 α      in ANC's #4, #3, #7, ...

........................................................................
.............................. CYCLE    6 ..............................
........................................................................

 iter      E             dE          RMSdq      gap      omega  full diag
   1    -21.2731227 -0.212731E+02  0.520E-02    3.38       0.0  T
   2    -21.2731228 -0.924704E-07  0.308E-02    3.37       1.0  T
   3    -21.2731226  0.181710E-06  0.416E-03    3.37       6.2  T
   4    -21.2731229 -0.226285E-06  0.121E-03    3.37      21.3  T
   5    -21.2731229 -0.956497E-08  0.585E-04    3.37      44.1  T
   6    -21.2731229 -0.380947E-09  0.188E-04    3.37     137.5  T
     SCC iter.                  ...        0 min,  0.002 sec
     gradient                   ...        0 min,  0.001 sec
 * total energy  :   -20.9156447 Eh     change       -0.2266423E-04 Eh
   gradient norm :     0.0015708 Eh/α   predicted    -0.1422308E-04 ( -37.24%)
   displ. norm   :     0.2011884 α      lambda       -0.5569040E-04
   maximum displ.:     0.1240908 α      in ANC's #4, #3, #7, ...

........................................................................
.............................. CYCLE    7 ..............................
........................................................................

 iter      E             dE          RMSdq      gap      omega  full diag
   1    -21.2732041 -0.212732E+02  0.215E-01    3.36       0.0  T
   2    -21.2732052 -0.107347E-05  0.127E-01    3.36       1.0  T
   3    -21.2732027  0.255457E-05  0.156E-02    3.36       1.7  T
   4    -21.2732060 -0.330473E-05  0.400E-03    3.36       6.5  T
   5    -21.2732060 -0.528024E-07  0.229E-03    3.36      11.3  T
   6    -21.2732060 -0.100435E-07  0.575E-04    3.36      44.9  T
   7    -21.2732060 -0.149650E-08  0.249E-04    3.36     103.9  T
     SCC iter.                  ...        0 min,  0.004 sec
     gradient                   ...        0 min,  0.001 sec
 * total energy  :   -20.9157003 Eh     change       -0.5568735E-04 Eh
   gradient norm :     0.0047973 Eh/α   predicted    -0.2834770E-04 ( -49.09%)
   displ. norm   :     0.1500317 α      lambda       -0.6061951E-04
   maximum displ.:     0.0918557 α      in ANC's #4, #3, #6, ...

........................................................................
.............................. CYCLE    8 ..............................
........................................................................

 iter      E             dE          RMSdq      gap      omega  full diag
   1    -21.2726409 -0.212726E+02  0.171E-01    3.35       0.0  T
   2    -21.2726417 -0.843997E-06  0.101E-01    3.36       1.0  T
   3    -21.2726409  0.834120E-06  0.981E-03    3.36       2.6  T
   4    -21.2726421 -0.118402E-05  0.360E-03    3.36       7.2  T
   5    -21.2726422 -0.928541E-07  0.183E-03    3.36      14.1  T
   6    -21.2726422 -0.751793E-08  0.622E-04    3.36      41.5  T
   7    -21.2726422 -0.944880E-09  0.237E-04    3.36     108.8  T
     SCC iter.                  ...        0 min,  0.003 sec
     gradient                   ...        0 min,  0.001 sec
 * total energy  :   -20.9157496 Eh     change       -0.4923250E-04 Eh
   gradient norm :     0.0071131 Eh/α   predicted    -0.3099480E-04 ( -37.04%)
   displ. norm   :     0.2680230 α      lambda       -0.1409561E-03
   maximum displ.:     0.1665087 α      in ANC's #4, #6, #3, ...

........................................................................
.............................. CYCLE    9 ..............................
........................................................................

 iter      E             dE          RMSdq      gap      omega  full diag
   1    -21.2705403 -0.212705E+02  0.315E-01    3.32       0.0  T
   2    -21.2705447 -0.442983E-05  0.186E-01    3.33       1.0  T
   3    -21.2705422  0.252103E-05  0.175E-02    3.34       1.5  T
   4    -21.2705454 -0.321715E-05  0.862E-03    3.34       3.0  T
   5    -21.2705462 -0.807549E-06  0.342E-03    3.34       7.6  T
   6    -21.2705463 -0.354609E-07  0.139E-03    3.34      18.5  T
   7    -21.2705463 -0.223214E-08  0.444E-04    3.34      58.2  T
   8    -21.2705463 -0.126037E-08  0.153E-04    3.34     169.3  T
     SCC iter.                  ...        0 min,  0.004 sec
     gradient                   ...        0 min,  0.001 sec
 * total energy  :   -20.9158027 Eh     change       -0.5313695E-04 Eh
   gradient norm :     0.0148772 Eh/α   predicted    -0.7554116E-04 (  42.16%)
   displ. norm   :     0.0601493 α      lambda       -0.1993401E-03
   maximum displ.:     0.0422170 α      in ANC's #3, #5, #7, ...

........................................................................
.............................. CYCLE   10 ..............................
........................................................................

 iter      E             dE          RMSdq      gap      omega  full diag
   1    -21.2728039 -0.212728E+02  0.502E-02    3.38       0.0  T
   2    -21.2728048 -0.894370E-06  0.306E-02    3.38       1.0  T
   3    -21.2728025  0.232432E-05  0.139E-02    3.37       1.9  T
   4    -21.2728050 -0.249319E-05  0.352E-03    3.37       7.3  T
   5    -21.2728051 -0.140005E-06  0.112E-03    3.37      23.0  T
   6    -21.2728051 -0.577163E-08  0.606E-04    3.37      42.6  T
   7    -21.2728051 -0.549267E-09  0.233E-04    3.37     111.1  T
     SCC iter.                  ...        0 min,  0.003 sec
     gradient                   ...        0 min,  0.001 sec
 * total energy  :   -20.9159141 Eh     change       -0.1114194E-03 Eh
   gradient norm :     0.0059083 Eh/α   predicted    -0.1000295E-03 ( -10.22%)
   displ. norm   :     0.1340922 α      lambda       -0.9814517E-04
   maximum displ.:     0.0866891 α      in ANC's #6, #4, #7, ...

........................................................................
.............................. CYCLE   11 ..............................
........................................................................

 iter      E             dE          RMSdq      gap      omega  full diag
   1    -21.2724619 -0.212725E+02  0.161E-01    3.39       0.0  T
   2    -21.2724626 -0.701260E-06  0.952E-02    3.39       1.0  T
   3    -21.2724618  0.707964E-06  0.897E-03    3.39       2.9  T
   4    -21.2724628 -0.100184E-05  0.320E-03    3.39       8.1  T
   5    -21.2724629 -0.721451E-07  0.151E-03    3.39      17.1  T
   6    -21.2724629 -0.300667E-08  0.337E-04    3.39      76.6  T
   7    -21.2724629 -0.290040E-09  0.152E-04    3.39     170.4  T
     SCC iter.                  ...        0 min,  0.003 sec
     gradient                   ...        0 min,  0.001 sec
 * total energy  :   -20.9159913 Eh     change       -0.7714160E-04 Eh
   gradient norm :     0.0045242 Eh/α   predicted    -0.4995433E-04 ( -35.24%)
   displ. norm   :     0.2280280 α      lambda       -0.1265848E-03
   maximum displ.:     0.1434517 α      in ANC's #6, #4, #7, ...

........................................................................
.............................. CYCLE   12 ..............................
........................................................................

 iter      E             dE          RMSdq      gap      omega  full diag
   1    -21.2707674 -0.212708E+02  0.276E-01    3.37       0.0  T
   2    -21.2707701 -0.269490E-05  0.163E-01    3.38       1.0  T
   3    -21.2707612  0.890421E-05  0.268E-02    3.39       1.0  T
   4    -21.2707714 -0.102386E-04  0.559E-03    3.38       4.6  T
   5    -21.2707716 -0.204154E-06  0.278E-03    3.38       9.3  T
   6    -21.2707716 -0.121676E-07  0.114E-03    3.38      22.7  T
   7    -21.2707716 -0.210746E-08  0.347E-04    3.38      74.3  T
   8    -21.2707716 -0.628212E-09  0.131E-04    3.38     197.4  T
     SCC iter.                  ...        0 min,  0.003 sec
     gradient                   ...        0 min,  0.003 sec
 * total energy  :   -20.9160453 Eh     change       -0.5397834E-04 Eh
   gradient norm :     0.0107858 Eh/α   predicted    -0.6658265E-04 (  23.35%)
   displ. norm   :     0.0402963 α      lambda       -0.1166991E-03
   maximum displ.:     0.0247392 α      in ANC's #3, #4, #1, ...

........................................................................
.............................. CYCLE   13 ..............................
........................................................................

 iter      E             dE          RMSdq      gap      omega  full diag
   1    -21.2730648 -0.212731E+02  0.339E-02    3.43       0.0  T
   2    -21.2730670 -0.219863E-05  0.194E-02    3.42       1.3  T
   3    -21.2730671 -0.223933E-07  0.778E-03    3.41       3.3  T
   4    -21.2730671 -0.589418E-07  0.303E-03    3.41       8.5  T
   5    -21.2730672 -0.562456E-07  0.172E-03    3.41      15.0  T
   6    -21.2730672 -0.415627E-07  0.349E-04    3.41      74.0  T
   7    -21.2730672 -0.492712E-09  0.155E-04    3.41     166.1  T
     SCC iter.                  ...        0 min,  0.002 sec
     gradient                   ...        0 min,  0.001 sec
 * total energy  :   -20.9161042 Eh     change       -0.5896209E-04 Eh
   gradient norm :     0.0053853 Eh/α   predicted    -0.5844385E-04 (  -0.88%)
   displ. norm   :     0.0873426 α      lambda       -0.6638634E-04
   maximum displ.:     0.0459957 α      in ANC's #6, #7, #4, ...

........................................................................
.............................. CYCLE   14 ..............................
........................................................................

 iter      E             dE          RMSdq      gap      omega  full diag
   1    -21.2732814 -0.212733E+02  0.111E-01    3.41       0.0  T
   2    -21.2732818 -0.358266E-06  0.659E-02    3.41       1.0  T
   3    -21.2732795  0.224718E-05  0.131E-02    3.41       2.0  T
   4    -21.2732821 -0.252146E-05  0.192E-03    3.41      13.5  T
   5    -21.2732821 -0.154066E-07  0.105E-03    3.41      24.5  T
   6    -21.2732821 -0.177827E-08  0.461E-04    3.41      56.0  T
   7    -21.2732821 -0.360544E-09  0.125E-04    3.41     206.4  T
     SCC iter.                  ...        0 min,  0.003 sec
     gradient                   ...        0 min,  0.001 sec
 * total energy  :   -20.9161627 Eh     change       -0.5844817E-04 Eh
   gradient norm :     0.0044680 Eh/α   predicted    -0.3344739E-04 ( -42.77%)
   displ. norm   :     0.3332654 α      lambda       -0.2186231E-03
   maximum displ.:     0.1637754 α      in ANC's #6, #5, #7, ...

........................................................................
.............................. CYCLE   15 ..............................
........................................................................

 iter      E             dE          RMSdq      gap      omega  full diag
   1    -21.2710781 -0.212711E+02  0.434E-01    3.34       0.0  T
   2    -21.2710856 -0.747963E-05  0.257E-01    3.36       1.0  T
   3    -21.2710491  0.364492E-04  0.529E-02    3.37       1.0  T
   4    -21.2710898 -0.406597E-04  0.868E-03    3.36       3.0  T
   5    -21.2710903 -0.488772E-06  0.439E-03    3.36       5.9  T
   6    -21.2710903 -0.337063E-07  0.206E-03    3.36      12.5  T
   7    -21.2710903 -0.604155E-08  0.432E-04    3.36      59.8  T
   8    -21.2710903 -0.124550E-08  0.168E-04    3.36     153.3  T
     SCC iter.                  ...        0 min,  0.004 sec
     gradient                   ...        0 min,  0.001 sec
 * total energy  :   -20.9161903 Eh     change       -0.2761875E-04 Eh
   gradient norm :     0.0174169 Eh/α   predicted    -0.1214528E-03 ( 339.75%)
   displ. norm   :     0.1502851 α      lambda       -0.3334104E-03
   maximum displ.:     0.0927345 α      in ANC's #6, #4, #7, ...

........................................................................
.............................. CYCLE   16 ..............................
........................................................................

 iter      E             dE          RMSdq      gap      omega  full diag
   1    -21.2749408 -0.212749E+02  0.181E-01    3.42       0.0  T
   2    -21.2749452 -0.444311E-05  0.107E-01    3.41       1.0  T
   3    -21.2749350  0.102335E-04  0.285E-02    3.40       1.0  T
   4    -21.2749458 -0.108426E-04  0.781E-03    3.40       3.3  T
   5    -21.2749465 -0.709024E-06  0.234E-03    3.40      11.1  T
   6    -21.2749466 -0.270496E-07  0.116E-03    3.40      22.3  T
   7    -21.2749466 -0.153578E-08  0.537E-04    3.40      48.0  T
   8    -21.2749466 -0.109670E-08  0.108E-04    3.40     239.8  T
     SCC iter.                  ...        0 min,  0.004 sec
     gradient                   ...        0 min,  0.002 sec
 * total energy  :   -20.9162898 Eh     change       -0.9956778E-04 Eh
   gradient norm :     0.0047714 Eh/α   predicted    -0.1704676E-03 (  71.21%)
   displ. norm   :     0.0717346 α      lambda       -0.6708207E-04
   maximum displ.:     0.0462898 α      in ANC's #6, #5, #7, ...

........................................................................
.............................. CYCLE   17 ..............................
........................................................................

 iter      E             dE          RMSdq      gap      omega  full diag
   1    -21.2743659 -0.212744E+02  0.957E-02    3.40       0.0  T
   2    -21.2743662 -0.298481E-06  0.565E-02    3.41       1.0  T
   3    -21.2743653  0.813180E-06  0.841E-03    3.41       3.1  T
   4    -21.2743663 -0.953411E-06  0.198E-03    3.41      13.0  T
   5    -21.2743663 -0.283144E-07  0.101E-03    3.41      25.7  T
   6    -21.2743663 -0.180209E-08  0.417E-04    3.41      62.0  T
   7    -21.2743663 -0.673687E-09  0.138E-04    3.41     187.5  T
     SCC iter.                  ...        0 min,  0.005 sec
     gradient                   ...        0 min,  0.002 sec
 * total energy  :   -20.9163436 Eh     change       -0.5375789E-04 Eh
   gradient norm :     0.0030108 Eh/α   predicted    -0.3371436E-04 ( -37.28%)
   displ. norm   :     0.2505490 α      lambda       -0.1373267E-03
   maximum displ.:     0.1403809 α      in ANC's #5, #6, #7, ...

........................................................................
.............................. CYCLE   18 ..............................
........................................................................

 iter      E             dE          RMSdq      gap      omega  full diag
   1    -21.2716015 -0.212716E+02  0.343E-01    3.36       0.0  T
   2    -21.2716058 -0.433768E-05  0.202E-01    3.37       1.0  T
   3    -21.2715927  0.131056E-04  0.328E-02    3.38       1.0  T
   4    -21.2716078 -0.151082E-04  0.647E-03    3.38       4.0  T
   5    -21.2716081 -0.245030E-06  0.338E-03    3.38       7.6  T
   6    -21.2716081 -0.265797E-07  0.173E-03    3.38      14.9  T
   7    -21.2716081 -0.473945E-08  0.479E-04    3.38      53.9  T
   8    -21.2716081 -0.149909E-08  0.138E-04    3.38     187.1  T
     SCC iter.                  ...        0 min,  0.003 sec
     gradient                   ...        0 min,  0.002 sec
 * total energy  :   -20.9163476 Eh     change       -0.4034569E-05 Eh
   gradient norm :     0.0142279 Eh/α   predicted    -0.7297715E-04 (1708.80%)
   displ. norm   :     0.1176845 α      lambda       -0.1774835E-03
   maximum displ.:     0.0619945 α      in ANC's #6, #5, #7, ...

........................................................................
.............................. CYCLE   19 ..............................
........................................................................

 iter      E             dE          RMSdq      gap      omega  full diag
   1    -21.2739437 -0.212739E+02  0.159E-01    3.43       0.0  T
   2    -21.2739465 -0.279321E-05  0.944E-02    3.42       1.0  T
   3    -21.2739409  0.558921E-05  0.213E-02    3.41       1.2  T
   4    -21.2739468 -0.595866E-05  0.609E-03    3.41       4.2  T
   5    -21.2739473 -0.422038E-06  0.202E-03    3.41      12.8  T
   6    -21.2739473 -0.226581E-07  0.998E-04    3.41      25.9  T
   7    -21.2739473 -0.108174E-08  0.443E-04    3.41      58.3  T
     SCC iter.                  ...        0 min,  0.005 sec
     gradient                   ...        0 min,  0.004 sec
 * total energy  :   -20.9164183 Eh     change       -0.7067672E-04 Eh
   gradient norm :     0.0023137 Eh/α   predicted    -0.8996939E-04 (  27.30%)
   displ. norm   :     0.0565299 α      lambda       -0.3199189E-04
   maximum displ.:     0.0378224 α      in ANC's #5, #6, #7, ...

........................................................................
.............................. CYCLE   20 ..............................
........................................................................

 iter      E             dE          RMSdq      gap      omega  full diag
   1    -21.2739878 -0.212740E+02  0.691E-02    3.41       0.0  T
   2    -21.2739879 -0.114041E-06  0.408E-02    3.41       1.0  T
   3    -21.2739877  0.198161E-06  0.446E-03    3.41       5.8  T
   4    -21.2739880 -0.259463E-06  0.112E-03    3.41      23.1  T
   5    -21.2739880 -0.454282E-08  0.628E-04    3.41      41.1  T
   6    -21.2739880 -0.141744E-08  0.278E-04    3.41      92.9  T
     SCC iter.                  ...        0 min,  0.002 sec
     gradient                   ...        0 min,  0.001 sec
 * total energy  :   -20.9164477 Eh     change       -0.2935325E-04 Eh
   gradient norm :     0.0024275 Eh/α   predicted    -0.1604765E-04 ( -45.33%)
   displ. norm   :     0.3480334 α      lambda       -0.1702177E-03
   maximum displ.:     0.2389995 α      in ANC's #5, #6, #7, ...
 * RMSD in coord.:     0.4481182 α      energy gain  -0.4239010E-02 Eh

generating ANC from exact Hessian ...
Using Lindh-Hessian (1995)
 Shifting diagonal of input Hessian by   8.952655072764534E-003
 Lowest  eigenvalues of input Hessian
    0.000000    0.000000    0.000000    0.000000    0.000000    0.000000
    0.010000    0.010456    0.011814    0.018001    0.019062    0.020427
    0.021509    0.039062    0.053750    0.057839    0.063276    0.074319
 Highest eigenvalues
    1.156465    1.177906    1.261408    1.345846    2.167782    2.565728
 

........................................................................
.............................. CYCLE   21 ..............................
........................................................................

 iter      E             dE          RMSdq      gap      omega  full diag
   1    -21.2710138 -0.212710E+02  0.437E-01    3.37       0.0  T
   2    -21.2710199 -0.611238E-05  0.258E-01    3.38       1.0  T
   3    -21.2710024  0.175458E-04  0.384E-02    3.39       1.0  T
   4    -21.2710229 -0.205866E-04  0.743E-03    3.38       3.5  T
   5    -21.2710232 -0.248503E-06  0.392E-03    3.38       6.6  T
   6    -21.2710232 -0.259169E-07  0.197E-03    3.38      13.1  T
   7    -21.2710232 -0.891337E-08  0.476E-04    3.38      54.3  T
   8    -21.2710232 -0.109939E-08  0.188E-04    3.38     137.3  T
     SCC iter.                  ...        0 min,  0.007 sec
     gradient                   ...        0 min,  0.001 sec
 * total energy  :   -20.9164802 Eh     change       -0.3249731E-04 Eh
   gradient norm :     0.0130389 Eh/α   predicted     0.0000000E+00 (-100.00%)
   displ. norm   :     0.0526398 α      lambda       -0.2038733E-03
   maximum displ.:     0.0274060 α      in ANC's #1, #3, #4, ...

........................................................................
.............................. CYCLE   22 ..............................
........................................................................

 iter      E             dE          RMSdq      gap      omega  full diag
   1    -21.2737995 -0.212738E+02  0.719E-02    3.43       0.0  T
   2    -21.2738017 -0.217143E-05  0.433E-02    3.42       1.0  T
   3    -21.2738009  0.788160E-06  0.974E-03    3.42       2.7  T
   4    -21.2738015 -0.621586E-06  0.573E-03    3.42       4.5  T
   5    -21.2738020 -0.422969E-06  0.162E-03    3.42      16.0  T
   6    -21.2738020 -0.217980E-07  0.516E-04    3.42      50.0  T
   7    -21.2738020 -0.280966E-09  0.228E-04    3.42     113.2  T
     SCC iter.                  ...        0 min,  0.003 sec
     gradient                   ...        0 min,  0.001 sec
 * total energy  :   -20.9165850 Eh     change       -0.1048298E-03 Eh
   gradient norm :     0.0028223 Eh/α   predicted    -0.1022188E-03 (  -2.49%)
   displ. norm   :     0.0401071 α      lambda       -0.5846543E-04
   maximum displ.:     0.0254472 α      in ANC's #1, #6, #5, ...

........................................................................
.............................. CYCLE   23 ..............................
........................................................................

 iter      E             dE          RMSdq      gap      omega  full diag
   1    -21.2751205 -0.212751E+02  0.532E-02    3.44       0.0  T
   2    -21.2751212 -0.706564E-06  0.317E-02    3.43       1.0  T
   3    -21.2751208  0.389238E-06  0.679E-03    3.43       3.8  T
   4    -21.2751212 -0.400238E-06  0.324E-03    3.43       8.0  T
   5    -21.2751213 -0.112926E-06  0.120E-03    3.43      21.4  T
   6    -21.2751213 -0.117904E-07  0.552E-04    3.43      46.8  T
   7    -21.2751213 -0.353378E-09  0.215E-04    3.43     119.8  T
     SCC iter.                  ...        0 min,  0.004 sec
     gradient                   ...        0 min,  0.001 sec
 * total energy  :   -20.9165962 Eh     change       -0.1120755E-04 Eh
   gradient norm :     0.0040466 Eh/α   predicted    -0.2928140E-04 ( 161.26%)
   displ. norm   :     0.0197591 α      lambda       -0.2823613E-04
   maximum displ.:     0.0111369 α      in ANC's #1, #4, #8, ...

........................................................................
.............................. CYCLE   24 ..............................
........................................................................

 iter      E             dE          RMSdq      gap      omega  full diag
   1    -21.2746637 -0.212747E+02  0.232E-02    3.42       0.0  T
   2    -21.2746638 -0.128269E-06  0.138E-02    3.42       1.9  T
   3    -21.2746637  0.649764E-07  0.280E-03    3.42       9.2  T
   4    -21.2746638 -0.686780E-07  0.111E-03    3.42      23.2  T
   5    -21.2746638 -0.118560E-07  0.588E-04    3.42      43.9  T
   6    -21.2746638 -0.380551E-08  0.160E-04    3.42     161.4  T
     SCC iter.                  ...        0 min,  0.003 sec
     gradient                   ...        0 min,  0.001 sec
 * total energy  :   -20.9166155 Eh     change       -0.1930073E-04 Eh
   gradient norm :     0.0014489 Eh/α   predicted    -0.1412484E-04 ( -26.82%)
   displ. norm   :     0.0633931 α      lambda       -0.1791216E-04
   maximum displ.:     0.0402698 α      in ANC's #1, #6, #5, ...

........................................................................
.............................. CYCLE   25 ..............................
........................................................................

 iter      E             dE          RMSdq      gap      omega  full diag
   1    -21.2740377 -0.212740E+02  0.746E-02    3.41       0.0  T
   2    -21.2740379 -0.268667E-06  0.440E-02    3.41       1.0  T
   3    -21.2740375  0.392477E-06  0.610E-03    3.41       4.2  T
   4    -21.2740380 -0.460985E-06  0.172E-03    3.41      15.0  T
   5    -21.2740380 -0.220884E-07  0.893E-04    3.41      28.9  T
   6    -21.2740380 -0.479084E-08  0.366E-04    3.41      70.6  T
     SCC iter.                  ...        0 min,  0.002 sec
     gradient                   ...        0 min,  0.001 sec
 * total energy  :   -20.9166322 Eh     change       -0.1668907E-04 Eh
   gradient norm :     0.0022825 Eh/α   predicted    -0.8971607E-05 ( -46.24%)
   displ. norm   :     0.0479969 α      lambda       -0.1398513E-04
   maximum displ.:     0.0287567 α      in ANC's #6, #1, #5, ...

........................................................................
.............................. CYCLE   26 ..............................
........................................................................

 iter      E             dE          RMSdq      gap      omega  full diag
   1    -21.2740923 -0.212741E+02  0.586E-02    3.41       0.0  T
   2    -21.2740924 -0.834475E-07  0.346E-02    3.41       1.0  T
   3    -21.2740920  0.426109E-06  0.594E-03    3.41       4.3  T
   4    -21.2740925 -0.492761E-06  0.996E-04    3.41      25.9  T
   5    -21.2740925 -0.196282E-08  0.449E-04    3.41      57.5  T
     SCC iter.                  ...        0 min,  0.002 sec
     gradient                   ...        0 min,  0.002 sec
 * total energy  :   -20.9166441 Eh     change       -0.1194560E-04 Eh
   gradient norm :     0.0023826 Eh/α   predicted    -0.7007612E-05 ( -41.34%)
   displ. norm   :     0.1260916 α      lambda       -0.3210622E-04
   maximum displ.:     0.0813554 α      in ANC's #6, #1, #5, ...

........................................................................
.............................. CYCLE   27 ..............................
........................................................................

 iter      E             dE          RMSdq      gap      omega  full diag
   1    -21.2738543 -0.212739E+02  0.164E-01    3.41       0.0  T
   2    -21.2738549 -0.604518E-06  0.965E-02    3.41       1.0  T
   3    -21.2738529  0.196803E-05  0.132E-02    3.41       2.0  T
   4    -21.2738553 -0.239622E-05  0.268E-03    3.41       9.6  T
   5    -21.2738553 -0.146039E-07  0.111E-03    3.41      23.2  T
   6    -21.2738553 -0.236062E-08  0.465E-04    3.41      55.6  T
   7    -21.2738553 -0.505793E-09  0.116E-04    3.41     222.3  T
     SCC iter.                  ...        0 min,  0.003 sec
     gradient                   ...        0 min,  0.001 sec
 * total energy  :   -20.9166622 Eh     change       -0.1807483E-04 Eh
   gradient norm :     0.0032382 Eh/α   predicted    -0.1630543E-04 (  -9.79%)
   displ. norm   :     0.0282657 α      lambda       -0.1074316E-04
   maximum displ.:     0.0230174 α      in ANC's #6, #5, #8, ...

........................................................................
.............................. CYCLE   28 ..............................
........................................................................

 iter      E             dE          RMSdq      gap      omega  full diag
   1    -21.2744052 -0.212744E+02  0.369E-02    3.42       0.0  T
   2    -21.2744053 -0.955759E-07  0.218E-02    3.42       1.2  T
   3    -21.2744050  0.231715E-06  0.446E-03    3.42       5.8  T
   4    -21.2744053 -0.250635E-06  0.125E-03    3.42      20.7  T
   5    -21.2744053 -0.168013E-07  0.445E-04    3.42      58.0  T
   6    -21.2744053 -0.823754E-09  0.206E-04    3.42     125.1  T
     SCC iter.                  ...        0 min,  0.002 sec
     gradient                   ...        0 min,  0.001 sec
 * total energy  :   -20.9166704 Eh     change       -0.8200986E-05 Eh
   gradient norm :     0.0013028 Eh/α   predicted    -0.5376652E-05 ( -34.44%)
   displ. norm   :     0.1037047 α      lambda       -0.1382011E-04
   maximum displ.:     0.0850671 α      in ANC's #6, #5, #8, ...

........................................................................
.............................. CYCLE   29 ..............................
........................................................................

 iter      E             dE          RMSdq      gap      omega  full diag
   1    -21.2746822 -0.212747E+02  0.141E-01    3.42       0.0  T
   2    -21.2746827 -0.491864E-06  0.830E-02    3.42       1.0  T
   3    -21.2746814  0.128260E-05  0.108E-02    3.42       2.4  T
   4    -21.2746829 -0.155905E-05  0.248E-03    3.42      10.4  T
   5    -21.2746830 -0.264803E-07  0.127E-03    3.42      20.4  T
   6    -21.2746830 -0.476219E-08  0.495E-04    3.42      52.2  T
   7    -21.2746830 -0.415103E-09  0.184E-04    3.42     140.2  T
     SCC iter.                  ...        0 min,  0.005 sec
     gradient                   ...        0 min,  0.002 sec
 * total energy  :   -20.9166833 Eh     change       -0.1287756E-04 Eh
   gradient norm :     0.0009795 Eh/α   predicted    -0.6945210E-05 ( -46.07%)
   displ. norm   :     0.0598083 α      lambda       -0.6866570E-05
   maximum displ.:     0.0490652 α      in ANC's #6, #1, #5, ...

........................................................................
.............................. CYCLE   30 ..............................
........................................................................

 iter      E             dE          RMSdq      gap      omega  full diag
   1    -21.2746535 -0.212747E+02  0.746E-02    3.42       0.0  T
   2    -21.2746536 -0.160543E-06  0.441E-02    3.42       1.0  T
   3    -21.2746526  0.105347E-05  0.905E-03    3.42       2.9  T
   4    -21.2746537 -0.117018E-05  0.121E-03    3.42      21.4  T
   5    -21.2746537 -0.446679E-08  0.589E-04    3.42      43.8  T
   6    -21.2746537 -0.565276E-09  0.258E-04    3.42     100.0  T
     SCC iter.                  ...        0 min,  0.003 sec
     gradient                   ...        0 min,  0.001 sec
 * total energy  :   -20.9166909 Eh     change       -0.7620099E-05 Eh
   gradient norm :     0.0008187 Eh/α   predicted    -0.3439806E-05 ( -54.86%)
   displ. norm   :     0.0664294 α      lambda       -0.6079228E-05
   maximum displ.:     0.0497313 α      in ANC's #6, #1, #8, ...

........................................................................
.............................. CYCLE   31 ..............................
........................................................................

 iter      E             dE          RMSdq      gap      omega  full diag
   1    -21.2744106 -0.212744E+02  0.764E-02    3.42       0.0  T
   2    -21.2744108 -0.163479E-06  0.451E-02    3.42       1.0  T
   3    -21.2744104  0.354606E-06  0.572E-03    3.42       4.5  T
   4    -21.2744108 -0.434770E-06  0.130E-03    3.42      19.9  T
   5    -21.2744108 -0.708803E-08  0.615E-04    3.42      42.0  T
   6    -21.2744108 -0.763318E-09  0.253E-04    3.42     101.9  T
     SCC iter.                  ...        0 min,  0.002 sec
     gradient                   ...        0 min,  0.001 sec
 * total energy  :   -20.9166968 Eh     change       -0.5843802E-05 Eh
   gradient norm :     0.0007746 Eh/α   predicted    -0.3047148E-05 ( -47.86%)
   displ. norm   :     0.0277858 α      lambda       -0.2432864E-05
   maximum displ.:     0.0209451 α      in ANC's #1, #6, #3, ...

........................................................................
.............................. CYCLE   32 ..............................
........................................................................

 iter      E             dE          RMSdq      gap      omega  full diag
   1    -21.2747314 -0.212747E+02  0.211E-02    3.42       0.0  T
   2    -21.2747315 -0.340210E-07  0.125E-02    3.42       2.1  T
   3    -21.2747314  0.871772E-07  0.271E-03    3.42       9.5  T
   4    -21.2747315 -0.929921E-07  0.745E-04    3.42      34.7  T
   5    -21.2747315 -0.656520E-08  0.250E-04    3.42     103.1  T
     SCC iter.                  ...        0 min,  0.003 sec
     gradient                   ...        0 min,  0.002 sec
 * total energy  :   -20.9166984 Eh     change       -0.1656697E-05 Eh
   gradient norm :     0.0007484 Eh/α   predicted    -0.1217368E-05 ( -26.52%)
   displ. norm   :     0.0505036 α      lambda       -0.2482102E-05
   maximum displ.:     0.0411867 α      in ANC's #6, #3, #8, ...

........................................................................
.............................. CYCLE   33 ..............................
........................................................................

 iter      E             dE          RMSdq      gap      omega  full diag
   1    -21.2743401 -0.212743E+02  0.684E-02    3.41       0.0  T
   2    -21.2743403 -0.207824E-06  0.404E-02    3.41       1.0  T
   3    -21.2743394  0.883847E-06  0.830E-03    3.42       3.1  T
   4    -21.2743404 -0.985406E-06  0.124E-03    3.42      20.9  T
   5    -21.2743404 -0.719038E-08  0.601E-04    3.41      43.0  T
   6    -21.2743404 -0.445112E-09  0.303E-04    3.41      85.3  T
     SCC iter.                  ...        0 min,  0.002 sec
     gradient                   ...        0 min,  0.001 sec
 * total energy  :   -20.9166984 Eh     change        0.2438539E-07 Eh
   gradient norm :     0.0020142 Eh/α   predicted    -0.1243931E-05 (*******%)
   displ. norm   :     0.0193185 α      lambda       -0.2729519E-05
   maximum displ.:     0.0161172 α      in ANC's #6, #8, #5, ...

........................................................................
.............................. CYCLE   34 ..............................
........................................................................

 iter      E             dE          RMSdq      gap      omega  full diag
   1    -21.2744258 -0.212744E+02  0.248E-02    3.42       0.0  T
   2    -21.2744258 -0.350907E-07  0.147E-02    3.42       1.8  T
   3    -21.2744256  0.215076E-06  0.401E-03    3.42       6.4  T
   4    -21.2744258 -0.234027E-06  0.472E-04    3.42      54.7  T
   5    -21.2744258 -0.110364E-08  0.221E-04    3.42     117.0  T
     SCC iter.                  ...        0 min,  0.002 sec
     gradient                   ...        0 min,  0.001 sec
 * total energy  :   -20.9167002 Eh     change       -0.1829616E-05 Eh
   gradient norm :     0.0008859 Eh/α   predicted    -0.1364094E-05 ( -25.44%)
   displ. norm   :     0.0155363 α      lambda       -0.1074334E-05
   maximum displ.:     0.0086184 α      in ANC's #1, #6, #3, ...

........................................................................
.............................. CYCLE   35 ..............................
........................................................................

 iter      E             dE          RMSdq      gap      omega  full diag
   1    -21.2745292 -0.212745E+02  0.116E-02    3.42       0.0  T
   2    -21.2745292 -0.170077E-07  0.695E-03    3.42       3.7  T
   3    -21.2745291  0.974184E-07  0.268E-03    3.42       9.6  T
   4    -21.2745292 -0.105062E-06  0.339E-04    3.42      76.2  T
   5    -21.2745292 -0.837506E-09  0.130E-04    3.42     197.9  T
     SCC iter.                  ...        0 min,  0.003 sec
     gradient                   ...        0 min,  0.001 sec
 * total energy  :   -20.9167011 Eh     change       -0.8825591E-06 Eh
   gradient norm :     0.0002799 Eh/α   predicted    -0.5374901E-06 ( -39.10%)
   displ. norm   :     0.0111158 α      lambda       -0.3759430E-06
   maximum displ.:     0.0071541 α      in ANC's #6, #3, #1, ...

........................................................................
.............................. CYCLE   36 ..............................
........................................................................

 iter      E             dE          RMSdq      gap      omega  full diag
   1    -21.2745583 -0.212746E+02  0.142E-02    3.42       0.0  T
   2    -21.2745583 -0.439394E-08  0.837E-03    3.42       3.1  T
   3    -21.2745583  0.418461E-07  0.180E-03    3.42      14.4  T
   4    -21.2745583 -0.463111E-07  0.222E-04    3.42     116.4  T
   5    -21.2745583 -0.103906E-09  0.116E-04    3.42     223.5  T
     SCC iter.                  ...        0 min,  0.002 sec
     gradient                   ...        0 min,  0.001 sec
 * total energy  :   -20.9167016 Eh     change       -0.4574870E-06 Eh
   gradient norm :     0.0001227 Eh/α   predicted    -0.1866726E-06 ( -59.20%)
   displ. norm   :     0.0306347 α      lambda       -0.5802798E-06
   maximum displ.:     0.0230775 α      in ANC's #6, #3, #8, ...

........................................................................
.............................. CYCLE   37 ..............................
........................................................................

 iter      E             dE          RMSdq      gap      omega  full diag
   1    -21.2745139 -0.212745E+02  0.434E-02    3.42       0.0  T
   2    -21.2745139 -0.471972E-07  0.256E-02    3.42       1.0  T
   3    -21.2745137  0.231378E-06  0.433E-03    3.42       6.0  T
   4    -21.2745139 -0.264469E-06  0.685E-04    3.42      37.7  T
   5    -21.2745139 -0.117434E-08  0.335E-04    3.42      77.2  T
     SCC iter.                  ...        0 min,  0.002 sec
     gradient                   ...        0 min,  0.001 sec
 * total energy  :   -20.9167021 Eh     change       -0.5579916E-06 Eh
   gradient norm :     0.0003475 Eh/α   predicted    -0.2909060E-06 ( -47.87%)
   displ. norm   :     0.0127793 α      lambda       -0.1881422E-06
   maximum displ.:     0.0088453 α      in ANC's #6, #1, #8, ...

........................................................................
.............................. CYCLE   38 ..............................
........................................................................

 iter      E             dE          RMSdq      gap      omega  full diag
   1    -21.2745532 -0.212746E+02  0.186E-02    3.42       0.0  T
   2    -21.2745532 -0.918459E-08  0.110E-02    3.42       2.3  T
   3    -21.2745532  0.394841E-07  0.182E-03    3.42      14.2  T
   4    -21.2745532 -0.455979E-07  0.325E-04    3.42      79.3  T
   5    -21.2745532 -0.376449E-09  0.172E-04    3.42     150.0  T
     SCC iter.                  ...        0 min,  0.002 sec
     gradient                   ...        0 min,  0.003 sec
 * total energy  :   -20.9167024 Eh     change       -0.2476016E-06 Eh
   gradient norm :     0.0002966 Eh/α   predicted    -0.9306630E-07 ( -62.41%)
   displ. norm   :     0.0365571 α      lambda       -0.4654979E-06
   maximum displ.:     0.0249417 α      in ANC's #6, #1, #8, ...

........................................................................
.............................. CYCLE   39 ..............................
........................................................................

 iter      E             dE          RMSdq      gap      omega  full diag
   1    -21.2745445 -0.212745E+02  0.540E-02    3.42       0.0  T
   2    -21.2745446 -0.715206E-07  0.319E-02    3.42       1.0  T
   3    -21.2745444  0.207700E-06  0.428E-03    3.42       6.0  T
   4    -21.2745447 -0.249369E-06  0.881E-04    3.42      29.3  T
   5    -21.2745447 -0.260849E-08  0.434E-04    3.42      59.5  T
     SCC iter.                  ...        0 min,  0.003 sec
     gradient                   ...        0 min,  0.001 sec
 * total energy  :   -20.9167028 Eh     change       -0.4324931E-06 Eh
   gradient norm :     0.0003213 Eh/α   predicted    -0.2321998E-06 ( -46.31%)
   displ. norm   :     0.0043263 α      lambda       -0.1533537E-06
   maximum displ.:     0.0020812 α      in ANC's #1, #6, #4, ...

........................................................................
.............................. CYCLE   40 ..............................
........................................................................

 iter      E             dE          RMSdq      gap      omega  full diag
   1    -21.2746280 -0.212746E+02  0.313E-03    3.42       0.0  T
   2    -21.2746280 -0.375017E-08  0.187E-03    3.42      13.8  T
   3    -21.2746280  0.584783E-08  0.705E-04    3.42      36.6  T
   4    -21.2746280 -0.592225E-08  0.245E-04    3.42     105.2  T
     SCC iter.                  ...        0 min,  0.002 sec
     gradient                   ...        0 min,  0.001 sec
 * total energy  :   -20.9167029 Eh     change       -0.1103924E-06 Eh
   gradient norm :     0.0001636 Eh/α   predicted    -0.7627733E-07 ( -30.90%)
   displ. norm   :     0.0093255 α      lambda       -0.5529503E-07
   maximum displ.:     0.0060371 α      in ANC's #6, #8, #3, ...

........................................................................
.............................. CYCLE   41 ..............................
........................................................................

 iter      E             dE          RMSdq      gap      omega  full diag
   1    -21.2745964 -0.212746E+02  0.138E-02    3.42       0.0  T
   2    -21.2745964 -0.517143E-08  0.813E-03    3.42       3.2  T
   3    -21.2745964  0.338334E-08  0.684E-04    3.42      37.7  T
   4    -21.2745964 -0.535611E-08  0.243E-04    3.42     106.3  T
     SCC iter.                  ...        0 min,  0.002 sec
     gradient                   ...        0 min,  0.001 sec
 * total energy  :   -20.9167030 Eh     change       -0.4909820E-07 Eh
   gradient norm :     0.0000626 Eh/α   predicted    -0.2713161E-07 ( -44.74%)
   displ. norm   :     0.0013867 α      lambda       -0.1319857E-07
   maximum displ.:     0.0009689 α      in ANC's #5, #1, #2, ...

   *** GEOMETRY OPTIMIZATION CONVERGED AFTER 41 ITERATIONS ***

------------------------------------------------------------------------
 total energy gain   :        -0.0044943 Eh       -2.8202 kcal/mol
 total RMSD          :         0.5720491 a0        0.3027 Å
 total power (kW/mol):        -0.2877994 (step)  -46.8756 (real)
------------------------------------------------------------------------

 ANCopt (total)                0 d,  0 h,  0 min,  0.252 sec
 optimizer setup                ...        0 min,  0.000 sec (  0.047%)
 model hessian                  ...        0 min,  0.004 sec (  1.672%)
 ANC generation                 ...        0 min,  0.001 sec (  0.254%)
 coordinate transformation      ...        0 min,  0.001 sec (  0.219%)
 single point calculation       ...        0 min,  0.229 sec ( 90.907%)
 optimization log               ...        0 min,  0.004 sec (  1.686%)
 hessian update                 ...        0 min,  0.005 sec (  2.105%)
 rational function              ...        0 min,  0.005 sec (  2.059%)

================
 final structure:
================
15
 xtb: 6.7.1 (edcfbbe)
C           -3.34456803055175       -0.34178741228294        0.23552870960347
C           -1.93874445987645       -0.11022757710917       -0.01261945963110
C           -0.77858485725064        0.09084923320092       -0.23805038680273
C            0.63887470901639        0.34657155019164       -0.46062178341767
C            1.08391002992123        1.66570256983783        0.17149443913148
C            1.40506842191621       -0.83753625256870        0.08237872904617
O            2.30073595229509       -0.78810235435325        0.87950538301785
H           -3.46442612163833       -1.07215218766452        1.03551687124970
H           -3.82620180033502       -0.71953579301097       -0.66609957650788
H           -3.82650897599539        0.58967835310973        0.53147254804381
H            0.81782436782159        0.36779459289232       -1.54559535246644
H            0.90602147162979        1.64207793190674        1.24442586941540
H            0.53095156072117        2.49684110155243       -0.25900322932152
H            2.14793803049284        1.81543278995624        0.00245519270566
H            1.04990658433333       -1.80658593915829       -0.32239163286619
 
 Bond Distances (Angstroems)
 ---------------------------
C1-C2=1.4462         C1-H8=1.0899         C1-H9=1.0898         C1-H10=1.0897        C2-C1=1.4462         C2-C3=1.1988         
C3-C2=1.1988         C3-C4=1.4574         C4-C3=1.4574         C4-C5=1.5290         C4-C6=1.5113         C4-H11=1.0998        
C5-C4=1.5290         C5-H12=1.0878        C5-H13=1.0871        C5-H14=1.0877        C6-C4=1.5113         C6-O7=1.2000         
C6-H15=1.1086        O7-C6=1.2000         H8-C1=1.0899         H9-C1=1.0898         H10-C1=1.0897        H11-C4=1.0998        
H12-C5=1.0878        H13-C5=1.0871        H14-C5=1.0877        H15-C6=1.1086        
 C  H  Rav=1.0926 sigma=0.0072  Rmin=1.0871  Rmax=1.1086     8
 C  C  Rav=1.4286 sigma=0.1190  Rmin=1.1988  Rmax=1.5290     5
 O  C  Rav=1.2000 sigma=0.0000  Rmin=1.2000  Rmax=1.2000     1
 
 selected bond angles (degree)
 --------------------
H8-C1-C2=109.89                H9-C1-C2=110.07                H9-C1-H8=109.05                H10-C1-C2=109.86               
H10-C1-H8=108.96               H10-C1-H9=109.00               C3-C2-C1=178.93                C4-C3-C2=177.91                
C5-C4-C3=111.80                C6-C4-C3=107.50                C6-C4-C5=112.33                H11-C4-C3=108.20               
H11-C4-C5=110.11               H11-C4-C6=106.68               H12-C5-C4=109.96               H13-C5-C4=110.35               
H13-C5-H12=108.90              H14-C5-C4=109.83               H14-C5-H12=108.44              H14-C5-H13=109.32              
O7-C6-C4=125.79                H15-C6-C4=113.03               H15-C6-O7=121.17               
 
 selected dihedral angles (degree)
 ---------------------------------
C3-C2-C1-H8=162.98            C3-C2-C1-H9= 42.87            C3-C2-C1-H10=282.84           C4-C3-C2-C1=143.03            
C5-C4-C3-C2=311.49            C6-C4-C3-C2= 75.20            H11-C4-C3-C2=190.07           H12-C5-C4-C3= 59.70           
H12-C5-C4-C6=298.75           H12-C5-C4-H11=180.01          H13-C5-C4-C3=299.54           H13-C5-C4-C6=178.59           
H13-C5-C4-H11= 59.85          H14-C5-C4-C3=178.96           H14-C5-C4-C6= 58.00           H14-C5-C4-H11=299.26          
O7-C6-C4-C3=233.90            O7-C6-C4-C5=357.29            O7-C6-C4-H11=118.03           H15-C6-C4-C3= 53.11           
H15-C6-C4-C5=176.50           H15-C6-C4-H11=297.24          
           -------------------------------------------------
          |                Final Singlepoint                |
           -------------------------------------------------

          ...................................................
          :                      SETUP                      :
          :.................................................:
          :  # basis functions                  36          :
          :  # atomic orbitals                  36          :
          :  # shells                           22          :
          :  # electrons                        38          :
          :  max. iterations                    40          :
          :  Hamiltonian                  GFN2-xTB          :
          :  restarted?                      false          :
          :  GBSA solvation                   true          :
          :  PC potential                    false          :
          :  electronic temp.          300.0000000     K    :
          :  accuracy                    1.0000000          :
          :  -> integral cutoff          0.2500000E+02      :
          :  -> integral neglect         0.1000000E-07      :
          :  -> SCF convergence          0.1000000E-05 Eh   :
          :  -> wf. convergence          0.1000000E-03 e    :
          :  Broyden damping             0.4000000          :
          :  net charge                          0          :
          :  unpaired electrons                  0          :
          ...................................................

 iter      E             dE          RMSdq      gap      omega  full diag
   1    -21.2745964 -0.212746E+02  0.104E-04    3.42       0.0  T
   2    -21.2745964 -0.738964E-11  0.718E-05    3.42     359.5  T
   3    -21.2745964  0.101110E-10  0.611E-05    3.42     422.7  T

   *** convergence criteria satisfied after 3 iterations ***

         #    Occupation            Energy/Eh            Energy/eV
      -------------------------------------------------------------
         1        2.0000           -0.7254339             -19.7401
       ...           ...                  ...                  ...
        13        2.0000           -0.4905947             -13.3498
        14        2.0000           -0.4809094             -13.0862
        15        2.0000           -0.4648727             -12.6498
        16        2.0000           -0.4547919             -12.3755
        17        2.0000           -0.4210658             -11.4578
        18        2.0000           -0.4033893             -10.9768
        19        2.0000           -0.3949978             -10.7484 (HOMO)
        20                         -0.2693157              -7.3285 (LUMO)
        21                         -0.1528804              -4.1601
        22                         -0.1489983              -4.0544
        23                          0.0453626               1.2344
        24                          0.0748636               2.0371
       ...                                ...                  ...
        36                          1.4062225              38.2653
      -------------------------------------------------------------
                  HL-Gap            0.1256821 Eh            3.4200 eV
             Fermi-level           -0.3321567 Eh           -9.0384 eV

 SCC (total)                   0 d,  0 h,  0 min,  0.003 sec
 SCC setup                      ...        0 min,  0.000 sec (  4.325%)
 Dispersion                     ...        0 min,  0.000 sec (  1.173%)
 classical contributions        ...        0 min,  0.000 sec (  0.321%)
 integral evaluation            ...        0 min,  0.001 sec ( 15.450%)
 iterations                     ...        0 min,  0.001 sec ( 33.042%)
 molecular gradient             ...        0 min,  0.001 sec ( 41.371%)
 printout                       ...        0 min,  0.000 sec (  3.267%)

         :::::::::::::::::::::::::::::::::::::::::::::::::::::
         ::                     SUMMARY                     ::
         :::::::::::::::::::::::::::::::::::::::::::::::::::::
         :: total energy             -20.916702956611 Eh    ::
         :: total w/o Gsasa/hb       -20.907950207075 Eh    ::
         :: gradient norm              0.000064066482 Eh/a0 ::
         :: HOMO-LUMO gap              3.419985259828 eV    ::
         ::.................................................::
         :: SCC energy               -21.274577776642 Eh    ::
         :: -> isotropic ES            0.026259557331 Eh    ::
         :: -> anisotropic ES          0.001784540125 Eh    ::
         :: -> anisotropic XC          0.011797068078 Eh    ::
         :: -> dispersion             -0.008443455933 Eh    ::
         :: -> Gsolv                  -0.010784718803 Eh    ::
         ::    -> Gelec               -0.002031969267 Eh    ::
         ::    -> Gsasa               -0.010960892675 Eh    ::
         ::    -> Ghb                  0.000000000000 Eh    ::
         ::    -> Gshift               0.002208143139 Eh    ::
         :: repulsion energy           0.357874820031 Eh    ::
         :: add. restraining           0.000000000000 Eh    ::
         :: total charge               0.000000000000 e     ::
         :::::::::::::::::::::::::::::::::::::::::::::::::::::

           -------------------------------------------------
          |                Property Printout                |
           -------------------------------------------------

    * Orbital Energies and Occupations

         #    Occupation            Energy/Eh            Energy/eV
      -------------------------------------------------------------
         1        2.0000           -0.7254339             -19.7401
       ...           ...                  ...                  ...
         7        2.0000           -0.5666615             -15.4196
         8        2.0000           -0.5558640             -15.1258
         9        2.0000           -0.5277542             -14.3609
        10        2.0000           -0.5167391             -14.0612
        11        2.0000           -0.4990362             -13.5795
        12        2.0000           -0.4921994             -13.3934
        13        2.0000           -0.4905947             -13.3498
        14        2.0000           -0.4809094             -13.0862
        15        2.0000           -0.4648727             -12.6498
        16        2.0000           -0.4547919             -12.3755
        17        2.0000           -0.4210658             -11.4578
        18        2.0000           -0.4033893             -10.9768
        19        2.0000           -0.3949978             -10.7484 (HOMO)
        20                         -0.2693157              -7.3285 (LUMO)
        21                         -0.1528804              -4.1601
        22                         -0.1489983              -4.0544
        23                          0.0453626               1.2344
        24                          0.0748636               2.0371
        25                          0.1355665               3.6890
        26                          0.1588289               4.3220
        27                          0.1690484               4.6000
        28                          0.1781360               4.8473
        29                          0.2044025               5.5621
        30                          0.2291416               6.2353
       ...                                ...                  ...
        36                          1.4062225              38.2653
      -------------------------------------------------------------
                  HL-Gap            0.1256821 Eh            3.4200 eV
             Fermi-level           -0.3321567 Eh           -9.0384 eV

     #   Z          covCN         q      C6AA      α(0)
     1   6 C        3.753    -0.089    22.254     6.727
     2   6 C        1.960    -0.041    32.181     9.161
     3   6 C        1.984    -0.063    32.750     9.242
     4   6 C        3.854    -0.010    20.725     6.475
     5   6 C        3.758    -0.098    22.419     6.751
     6   6 C        2.774     0.222    23.320     7.909
     7   8 O        0.856    -0.341    20.533     6.075
     8   1 H        0.925     0.060     2.201     2.320
     9   1 H        0.925     0.060     2.194     2.316
    10   1 H        0.925     0.062     2.178     2.308
    11   1 H        0.923     0.074     2.046     2.237
    12   1 H        0.925     0.049     2.328     2.386
    13   1 H        0.925     0.047     2.358     2.401
    14   1 H        0.925     0.049     2.337     2.391
    15   1 H        0.922     0.019     2.751     2.594

 Mol. C6AA /au·bohr⁶  :       2187.768316
 Mol. C8AA /au·bohr⁸  :      50431.202129
 Mol. α(0) /au        :         71.292454


Wiberg/Mayer (AO) data.
largest (>0.10) Wiberg bond orders for each atom

 ---------------------------------------------------------------------------
     #   Z sym  total        # sym  WBO       # sym  WBO       # sym  WBO
 ---------------------------------------------------------------------------
     1   6 C    3.994 --     2 C    1.068     9 H    0.964     8 H    0.963
                            10 H    0.963
     2   6 C    3.979 --     3 C    2.800     1 C    1.068
     3   6 C    3.974 --     2 C    2.800     4 C    1.012
     4   6 C    3.996 --     3 C    1.012     5 C    0.991     6 C    0.978
                            11 H    0.917
     5   6 C    3.993 --     4 C    0.991    13 H    0.987    12 H    0.987
                            14 H    0.984
     6   6 C    3.905 --     7 O    1.917     4 C    0.978    15 H    0.932
     7   8 O    2.088 --     6 C    1.917
     8   1 H    0.996 --     1 C    0.963
     9   1 H    0.996 --     1 C    0.964
    10   1 H    0.995 --     1 C    0.963
    11   1 H    0.995 --     4 C    0.917
    12   1 H    0.998 --     5 C    0.987
    13   1 H    0.998 --     5 C    0.987
    14   1 H    0.997 --     5 C    0.984
    15   1 H    1.000 --     6 C    0.932
 ---------------------------------------------------------------------------

Topologies differ in total number of bonds
Writing topology from bond orders to xtbtopo.mol

molecular dipole:
                 x           y           z       tot (Debye)
 q only:       -1.094       0.290      -0.595
   full:       -1.188       0.208      -0.722       3.572
molecular quadrupole (traceless):
                xx          xy          yy          xz          yz          zz
 q only:       -0.288       3.387       1.080      -4.596       1.204      -0.791
  q+dip:        0.948       4.078       0.515      -6.501       1.230      -1.463
   full:       -0.555       3.717       1.071      -6.590       1.306      -0.516

           -------------------------------------------------
          |                Geometry Summary                 |
           -------------------------------------------------

      molecular mass/u    :       96.1273463
   center of mass at/Å    :       -0.0430585       0.0052253       0.1188782
  moments of inertia/u·Å² :        0.9231096E+02   0.3823952E+03   0.4393652E+03
rotational constants/cm⁻¹ :        0.1826179E+00   0.4408432E-01   0.3836815E-01

 * 10 selected distances

     #   Z          #   Z                                           value/Å
     2   6 C        3   6 C                                       1.1988418
     4   6 C        5   6 C                                       1.5289652 (max)
     6   6 C        7   8 O                                       1.2000313
     1   6 C        8   1 H                                       1.0898532
     1   6 C        9   1 H                                       1.0897700
     1   6 C       10   1 H                                       1.0897149
     4   6 C       11   1 H                                       1.0998369
     5   6 C       12   1 H                                       1.0878348
     5   6 C       13   1 H                                       1.0871443 (min)
     5   6 C       14   1 H                                       1.0877266

 * 3 distinct bonds (by element types)

   Z      Z             #   av. dist./Å        max./Å        min./Å
   1 H    6 C           7     1.0902687     1.0998369     1.0871443
   6 C    6 C           2     1.3639035     1.5289652     1.1988418
   6 C    8 O           1     1.2000313     1.2000313     1.2000313


optimized geometry written to: xtbopt.xyz


           -------------------------------------------------
          | TOTAL ENERGY              -20.916702956611 Eh   |
          | GRADIENT NORM               0.000064066482 Eh/α |
          | HOMO-LUMO GAP               3.419985259828 eV   |
           -------------------------------------------------

------------------------------------------------------------------------
 * finished run on 2024/08/07 at 20:52:38.101     
------------------------------------------------------------------------
 total:
 * wall-time:     0 d,  0 h,  0 min,  0.282 sec
 *  cpu-time:     0 d,  0 h,  0 min,  2.140 sec
 * ratio c/w:     7.582 speedup
 SCF:
 * wall-time:     0 d,  0 h,  0 min,  0.012 sec
 *  cpu-time:     0 d,  0 h,  0 min,  0.085 sec
 * ratio c/w:     7.031 speedup
 ANC optimizer:
 * wall-time:     0 d,  0 h,  0 min,  0.257 sec
 *  cpu-time:     0 d,  0 h,  0 min,  1.968 sec
 * ratio c/w:     7.649 speedup

