15
 energy: -20.916702956611 gnorm: 0.000064066482 xtb: 6.7.1 (edcfbbe)
C           -3.34456803055175       -0.34178741228294        0.23552870960347
C           -1.93874445987645       -0.11022757710917       -0.01261945963110
C           -0.77858485725064        0.09084923320092       -0.23805038680273
C            0.63887470901639        0.34657155019164       -0.46062178341767
C            1.08391002992123        1.66570256983783        0.17149443913148
C            1.40506842191621       -0.83753625256870        0.08237872904617
O            2.30073595229509       -0.78810235435325        0.87950538301785
H           -3.46442612163833       -1.07215218766452        1.03551687124970
H           -3.82620180033502       -0.71953579301097       -0.66609957650788
H           -3.82650897599539        0.58967835310973        0.53147254804381
H            0.81782436782159        0.36779459289232       -1.54559535246644
H            0.90602147162979        1.64207793190674        1.24442586941540
H            0.53095156072117        2.49684110155243       -0.25900322932152
H            2.14793803049284        1.81543278995624        0.00245519270566
H            1.04990658433333       -1.80658593915829       -0.32239163286619
