      -----------------------------------------------------------      
     |                   =====================                   |     
     |                           x T B                           |     
     |                   =====================                   |     
     |                         S. Grimme                         |     
     |          Mulliken Center for Theoretical Chemistry        |     
     |                    University of Bonn                     |     
      -----------------------------------------------------------      

   * xtb version 6.7.1 (edcfbbe) compiled by 'albert@albert-system' on 2024-07-22

   xtb is free software: you can redistribute it and/or modify it under
   the terms of the GNU Lesser General Public License as published by
   the Free Software Foundation, either version 3 of the License, or
   (at your option) any later version.
   
   xtb is distributed in the hope that it will be useful,
   but WITHOUT ANY WARRANTY; without even the implied warranty of
   MERCHANTABILITY or FITNESS FOR A PARTICULAR PURPOSE.  See the
   GNU Lesser General Public License for more details.
   
   Cite this work as:
   * C. Bannwarth, E. Caldeweyher, S. Ehlert, A. Hansen, P. Pracht,
     J. Seibert, S. Spicher, S. Grimme, WIREs Comput. Mol. Sci., 2020, 11,
     e01493. DOI: 10.1002/wcms.1493
   
   for GFN2-xTB:
   * C. Bannwarth, S. Ehlert and S. Grimme., J. Chem. Theory Comput., 2019,
     15, 1652-1671. DOI: 10.1021/acs.jctc.8b01176
   for GFN1-xTB:
   * S. Grimme, C. Bannwarth, P. Shushkov, J. Chem. Theory Comput., 2017,
     13, 1989-2009. DOI: 10.1021/acs.jctc.7b00118
   for GFN0-xTB:
   * P. Pracht, E. Caldeweyher, S. Ehlert, S. Grimme, ChemRxiv, 2019, preprint.
     DOI: 10.26434/chemrxiv.8326202.v1
   for GFN-FF:
   * S. Spicher and S. Grimme, Angew. Chem. Int. Ed., 2020, 59, 15665-15673.
     DOI: 10.1002/anie.202004239
   
   for ALPB and GBSA implicit solvation:
   * S. Ehlert, M. Stahn, S. Spicher, S. Grimme, J. Chem. Theory Comput.,
     2021, 17, 4250-4261. DOI: 10.1021/acs.jctc.1c00471
   
   for ddCOSMO and CPCM-X implicit solvation:
   * M. Stahn, S. Ehlert, S. Grimme, J. Phys. Chem. A,
     2023, XX, XXXX-XXXX. DOI: 10.1021/acs.jpca.3c04382
   
   for DFT-D4:
   * E. Caldeweyher, C. Bannwarth and S. Grimme, J. Chem. Phys., 2017,
     147, 034112. DOI: 10.1063/1.4993215
   * E. Caldeweyher, S. Ehlert, A. Hansen, H. Neugebauer, S. Spicher,
     C. Bannwarth and S. Grimme, J. Chem. Phys., 2019, 150, 154122.
     DOI: 10.1063/1.5090222
   * E. Caldeweyher, J.-M. Mewes, S. Ehlert and S. Grimme, Phys. Chem. Chem. Phys.
     2020, 22, 8499-8512. DOI: 10.1039/D0CP00502A
   
   for sTDA-xTB:
   * S. Grimme and C. Bannwarth, J. Chem. Phys., 2016, 145, 054103.
     DOI: 10.1063/1.4959605
   
   in the mass-spec context:
   * V. Asgeirsson, C. Bauer and S. Grimme, Chem. Sci., 2017, 8, 4879.
     DOI: 10.1039/c7sc00601b
   * J. Koopman and S. Grimme, ACS Omega 2019, 4, 12, 15120-15133.
     DOI: 10.1021/acsomega.9b02011
   
   for metadynamics refer to:
   * S. Grimme, J. Chem. Theory Comput., 2019, 155, 2847-2862
     DOI: 10.1021/acs.jctc.9b00143
   
   for SPH calculations refer to:
   * S. Spicher and S. Grimme, J. Chem. Theory Comput., 2021, 17, 1701-1714
     DOI: 10.1021/acs.jctc.0c01306
   
   for ONIOM refer to:
   * C. Plett, A. Katbashev, S. Ehlert, S. Grimme, M. Bursch,
     Phys. Chem. Chem. Phys., 2023, 25, 17860-17868. DOI: 10.1039/D3CP02178E
   
   for DIPRO refer to:
   * J. Kohn, N. Gildemeister, S. Grimme, D. Fazzi, A. Hansen,
     J. Chem. Phys., 2023, just accepted.
   
   for PTB refer to:
   * S. Grimme, M. Mueller, A. Hansen, J. Chem. Phys., 2023, 158, 124111.
     DOI: 10.1063/5.0137838
   
   with help from (in alphabetical order)
   P. Atkinson, C. Bannwarth, F. Bohle, G. Brandenburg, E. Caldeweyher
   M. Checinski, S. Dohm, S. Ehlert, S. Ehrlich, I. Gerasimov, C. Hölzer
   A. Katbashev, J. Kohn, J. Koopman, C. Lavigne, S. Lehtola, F. März, M. Müller,
   F. Musil, H. Neugebauer, J. Pisarek, C. Plett, P. Pracht, F. Pultar,
   J. Seibert, P. Shushkov, S. Spicher, M. Stahn, M. Steiner, T. Strunk,
   J. Stückrath, T. Rose, and J. Unsleber
   
 * started run on 2024/08/07 at 20:43:24.262     
   ID    Z sym.   atoms
    1    6 C      1-3, 5, 6
    2    7 N      4
    3    1 H      7-11

           -------------------------------------------------
          |                Calculation Setup                |
           -------------------------------------------------

          program call               : xtb crest_best.xyz --gfn 2 --alpb toluene --opt vtight -c 0 --iterations 40
          coordinate file            : crest_best.xyz
          omp threads                :                     8


           -------------------------------------------------
          |                 G F N 2 - x T B                 |
           -------------------------------------------------

        Reference                      10.1021/acs.jctc.8b01176
      * Hamiltonian:
        H0-scaling (s, p, d)           1.850000    2.230000    2.230000
        zeta-weighting                 0.500000
      * Dispersion:
        s8                             2.700000
        a1                             0.520000
        a2                             5.000000
        s9                             5.000000
      * Repulsion:
        kExp                           1.500000    1.000000
        rExp                           1.000000
      * Coulomb:
        alpha                          2.000000
        third order                    shell-resolved
        anisotropic                    true
        a3                             3.000000
        a5                             4.000000
        cn-shift                       1.200000
        cn-exp                         4.000000
        max-rad                        5.000000

      * Solvation model:               ALPB
        Solvent                        toluene
        Parameter file                 internal GFN2-xTB/ALPB
        Dielectric constant                7.0000E+00
        Reference state                gsolv [1 M gas/solution]
        Free energy shift                  2.2081E-03 Eh       1.3856E+00 kcal/mol
        Temperature                        2.9815E+02 K
        Density                            8.6700E-01 kg/L
        Solvent mass                       7.8110E+01 g/mol
        Interaction kernel             P16
        Born radius scaling (c1)           1.7172E+00
        Born radii integrator          GBOBC
        Born offset                        0.0000E+00 a0       0.0000E+00 AA
        H-bond correction              false
        Ion screening                  false
        Surface tension                    1.0000E-05 Eh       1.5569E+01 dyn/cm
        Grid points                               230 per atom

          ...................................................
          :                      SETUP                      :
          :.................................................:
          :  # basis functions                  29          :
          :  # atomic orbitals                  29          :
          :  # shells                           17          :
          :  # electrons                        30          :
          :  max. iterations                    40          :
          :  Hamiltonian                  GFN2-xTB          :
          :  restarted?                      false          :
          :  GBSA solvation                   true          :
          :  PC potential                    false          :
          :  electronic temp.          300.0000000     K    :
          :  accuracy                    1.0000000          :
          :  -> integral cutoff          0.2500000E+02      :
          :  -> integral neglect         0.1000000E-07      :
          :  -> SCF convergence          0.1000000E-05 Eh   :
          :  -> wf. convergence          0.1000000E-03 e    :
          :  Broyden damping             0.4000000          :
          :  net charge                          0          :
          :  unpaired electrons                  0          :
          ...................................................

 iter      E             dE          RMSdq      gap      omega  full diag
   1    -16.4409244 -0.164409E+02  0.492E+00    3.75       0.0  T
   2    -16.4512143 -0.102900E-01  0.300E+00    3.53       1.0  T
   3    -16.4485365  0.267781E-02  0.835E-01    3.39       1.0  T
   4    -16.4523468 -0.381026E-02  0.249E-01    3.26       1.0  T
   5    -16.4527601 -0.413323E-03  0.622E-02    3.29       1.0  T
   6    -16.4527782 -0.180533E-04  0.262E-02    3.29       1.1  T
   7    -16.4527780  0.144051E-06  0.120E-02    3.29       2.5  T
   8    -16.4527787 -0.648586E-06  0.201E-03    3.29      15.0  T
   9    -16.4527787 -0.274522E-08  0.731E-04    3.29      41.2  T
  10    -16.4527787 -0.334380E-08  0.123E-04    3.29     244.1  T

   *** convergence criteria satisfied after 10 iterations ***

         #    Occupation            Energy/Eh            Energy/eV
      -------------------------------------------------------------
         1        2.0000           -0.6662234             -18.1289
       ...           ...                  ...                  ...
         9        2.0000           -0.5058963             -13.7661
        10        2.0000           -0.4876898             -13.2707
        11        2.0000           -0.4731694             -12.8756
        12        2.0000           -0.4403800             -11.9833
        13        2.0000           -0.4379057             -11.9160
        14        2.0000           -0.4202420             -11.4354
        15        2.0000           -0.3713021             -10.1036 (HOMO)
        16                         -0.2503743              -6.8130 (LUMO)
        17                         -0.2355232              -6.4089
        18                         -0.1074490              -2.9238
        19                          0.1178135               3.2059
        20                          0.1356002               3.6899
       ...                                ...                  ...
        29                          0.6381392              17.3647
      -------------------------------------------------------------
                  HL-Gap            0.1209278 Eh            3.2906 eV
             Fermi-level           -0.3108382 Eh           -8.4583 eV

 SCC (total)                   0 d,  0 h,  0 min,  0.010 sec
 SCC setup                      ...        0 min,  0.000 sec (  3.722%)
 Dispersion                     ...        0 min,  0.000 sec (  0.952%)
 classical contributions        ...        0 min,  0.000 sec (  0.199%)
 integral evaluation            ...        0 min,  0.001 sec (  6.369%)
 iterations                     ...        0 min,  0.004 sec ( 44.006%)
 molecular gradient             ...        0 min,  0.004 sec ( 43.173%)
 printout                       ...        0 min,  0.000 sec (  1.044%)

         :::::::::::::::::::::::::::::::::::::::::::::::::::::
         ::                     SUMMARY                     ::
         :::::::::::::::::::::::::::::::::::::::::::::::::::::
         :: total energy             -16.155779978560 Eh    ::
         :: total w/o Gsasa/hb       -16.149398696752 Eh    ::
         :: gradient norm              0.025153726920 Eh/a0 ::
         :: HOMO-LUMO gap              3.290612963604 eV    ::
         ::.................................................::
         :: SCC energy               -16.452774402544 Eh    ::
         :: -> isotropic ES            0.007338092139 Eh    ::
         :: -> anisotropic ES          0.002430438816 Eh    ::
         :: -> anisotropic XC          0.016153582945 Eh    ::
         :: -> dispersion             -0.007267455350 Eh    ::
         :: -> Gsolv                  -0.006699198918 Eh    ::
         ::    -> Gelec               -0.000317917110 Eh    ::
         ::    -> Gsasa               -0.008589424947 Eh    ::
         ::    -> Ghb                  0.000000000000 Eh    ::
         ::    -> Gshift               0.002208143139 Eh    ::
         :: repulsion energy           0.296994423984 Eh    ::
         :: add. restraining           0.000000000000 Eh    ::
         :: total charge               0.000000000000 e     ::
         :::::::::::::::::::::::::::::::::::::::::::::::::::::

      ----------------------------------------------------------- 
     |                   =====================                   |
     |                        A N C O P T                        |
     |                   =====================                   |
     |               Approximate Normal Coordinate               |
     |                Rational Function Optimizer                |
      ----------------------------------------------------------- 
      ----------------------------------------------------------- 
     |                   =====================                   |
     |                        A N C O P T                        |
     |                   =====================                   |
     |               Approximate Normal Coordinate               |
     |                Rational Function Optimizer                |
      ----------------------------------------------------------- 

          ...................................................
          :                      SETUP                      :
          :.................................................:
          :   optimization level         verytight          :
          :   max. optcycles                   220          :
          :   ANC micro-cycles                  20          :
          :   degrees of freedom                27          :
          :.................................................:
          :   RF solver                   davidson          :
          :   write xtbopt.log                true          :
          :   linear?                        false          :
          :   energy convergence         0.1000000E-06 Eh   :
          :   grad. convergence          0.2000000E-03 Eh/α :
          :   maxmium RF displ.          1.0000000          :
          :   Hlow (freq-cutoff)         0.1000000E-01      :
          :   Hmax (freq-cutoff)         5.0000000          :
          :   S6 in model hess.         20.0000000          :
          ...................................................

generating ANC from exact Hessian ...
Using Lindh-Hessian (1995)
 Shifting diagonal of input Hessian by   0.000000000000000E+000
 Lowest  eigenvalues of input Hessian
    0.000000    0.000000    0.000000    0.000000    0.000000    0.000000
    0.016850    0.021413    0.026794    0.059737    0.071679    0.103789
    0.103822    0.108735    0.117909    0.145089    0.145129    0.160958
 Highest eigenvalues
    1.426722    1.574507    1.661813    1.992857    2.116436    2.149968
 

........................................................................
.............................. CYCLE    1 ..............................
........................................................................

 iter      E             dE          RMSdq      gap      omega  full diag
   1    -16.4527787 -0.164528E+02  0.720E-06    3.29       0.0  T
   2    -16.4527787 -0.177636E-13  0.415E-06    3.29    7266.3  T
   3    -16.4527787  0.106581E-13  0.189E-06    3.29   15921.8  T
     SCC iter.                  ...        0 min,  0.002 sec
     gradient                   ...        0 min,  0.002 sec
 * total energy  :   -16.1557800 Eh     change       -0.1255529E-10 Eh
   gradient norm :     0.0251535 Eh/α   predicted     0.0000000E+00 (-100.00%)
   displ. norm   :     0.0851428 α      lambda       -0.1488748E-02
   maximum displ.:     0.0508093 α      in ANC's #13, #9, #14, ...

........................................................................
.............................. CYCLE    2 ..............................
........................................................................

 iter      E             dE          RMSdq      gap      omega  full diag
   1    -16.4423155 -0.164423E+02  0.138E-01    3.23       0.0  T
   2    -16.4423172 -0.169480E-05  0.826E-02    3.24       1.0  T
   3    -16.4423155  0.171551E-05  0.149E-02    3.24       2.0  T
   4    -16.4423178 -0.227008E-05  0.327E-03    3.24       9.2  T
   5    -16.4423178 -0.147675E-07  0.982E-04    3.24      30.7  T
   6    -16.4423178  0.327333E-09  0.378E-04    3.24      79.7  T
     SCC iter.                  ...        0 min,  0.003 sec
     gradient                   ...        0 min,  0.002 sec
 * total energy  :   -16.1566924 Eh     change       -0.9124120E-03 Eh
   gradient norm :     0.0077930 Eh/α   predicted    -0.7497696E-03 ( -17.83%)
   displ. norm   :     0.0376604 α      lambda       -0.1823093E-03
   maximum displ.:     0.0234178 α      in ANC's #9, #13, #6, ...

........................................................................
.............................. CYCLE    3 ..............................
........................................................................

 iter      E             dE          RMSdq      gap      omega  full diag
   1    -16.4405230 -0.164405E+02  0.568E-02    3.22       0.0  T
   2    -16.4405232 -0.196964E-06  0.335E-02    3.22       1.0  T
   3    -16.4405230  0.170957E-06  0.500E-03    3.22       6.0  T
   4    -16.4405232 -0.237107E-06  0.114E-03    3.22      26.5  T
   5    -16.4405232 -0.137583E-08  0.416E-04    3.22      72.5  T
   6    -16.4405232 -0.213916E-09  0.144E-04    3.22     209.6  T
     SCC iter.                  ...        0 min,  0.002 sec
     gradient                   ...        0 min,  0.001 sec
 * total energy  :   -16.1568034 Eh     change       -0.1110299E-03 Eh
   gradient norm :     0.0030872 Eh/α   predicted    -0.9128431E-04 ( -17.78%)
   displ. norm   :     0.0158170 α      lambda       -0.2754030E-04
   maximum displ.:     0.0095733 α      in ANC's #6, #13, #9, ...

........................................................................
.............................. CYCLE    4 ..............................
........................................................................

 iter      E             dE          RMSdq      gap      omega  full diag
   1    -16.4410317 -0.164410E+02  0.212E-02    3.22       0.0  T
   2    -16.4410317 -0.278280E-07  0.123E-02    3.22       2.5  T
   3    -16.4410317  0.697150E-08  0.163E-03    3.22      18.5  T
   4    -16.4410317 -0.126830E-07  0.394E-04    3.22      76.5  T
   5    -16.4410317 -0.511854E-09  0.270E-04    3.22     111.7  T
     SCC iter.                  ...        0 min,  0.003 sec
     gradient                   ...        0 min,  0.001 sec
 * total energy  :   -16.1568205 Eh     change       -0.1712065E-04 Eh
   gradient norm :     0.0013007 Eh/α   predicted    -0.1377487E-04 ( -19.54%)
   displ. norm   :     0.0091479 α      lambda       -0.4275637E-05
   maximum displ.:     0.0072684 α      in ANC's #6, #14, #16, ...

........................................................................
.............................. CYCLE    5 ..............................
........................................................................

 iter      E             dE          RMSdq      gap      omega  full diag
   1    -16.4417759 -0.164418E+02  0.113E-02    3.22       0.0  T
   2    -16.4417760 -0.264209E-07  0.674E-03    3.22       4.5  T
   3    -16.4417759  0.281552E-07  0.195E-03    3.22      15.4  T
   4    -16.4417760 -0.352749E-07  0.309E-04    3.22      97.6  T
   5    -16.4417760 -0.613174E-09  0.151E-04    3.22     199.7  T
     SCC iter.                  ...        0 min,  0.001 sec
     gradient                   ...        0 min,  0.001 sec
 * total energy  :   -16.1568229 Eh     change       -0.2323163E-05 Eh
   gradient norm :     0.0006347 Eh/α   predicted    -0.2135739E-05 (  -8.07%)
   displ. norm   :     0.0021538 α      lambda       -0.4462796E-06
   maximum displ.:     0.0010225 α      in ANC's #13, #9, #16, ...

........................................................................
.............................. CYCLE    6 ..............................
........................................................................

 iter      E             dE          RMSdq      gap      omega  full diag
   1    -16.4416144 -0.164416E+02  0.351E-03    3.22       0.0  T
   2    -16.4416144 -0.391552E-09  0.206E-03    3.22      14.7  T
   3    -16.4416144 -0.610854E-10  0.143E-04    3.22     211.4  T
   4    -16.4416144 -0.689866E-10  0.608E-05    3.22     495.8  T
     SCC iter.                  ...        0 min,  0.001 sec
     gradient                   ...        0 min,  0.001 sec
 * total energy  :   -16.1568232 Eh     change       -0.3440467E-06 Eh
   gradient norm :     0.0001150 Eh/α   predicted    -0.2219663E-06 ( -35.48%)
   displ. norm   :     0.0004358 α      lambda       -0.1470691E-07
   maximum displ.:     0.0003147 α      in ANC's #6, #9, #13, ...

........................................................................
.............................. CYCLE    7 ..............................
........................................................................

 iter      E             dE          RMSdq      gap      omega  full diag
   1    -16.4415794 -0.164416E+02  0.648E-04    3.22       0.0  T
   2    -16.4415794 -0.354134E-10  0.377E-04    3.22      80.0  T
   3    -16.4415794  0.280380E-10  0.657E-05    3.22     459.1  T
     SCC iter.                  ...        0 min,  0.001 sec
     gradient                   ...        0 min,  0.001 sec
 * total energy  :   -16.1568232 Eh     change       -0.1187544E-07 Eh
   gradient norm :     0.0000230 Eh/α   predicted    -0.7492500E-08 ( -36.91%)
   displ. norm   :     0.0001232 α      lambda       -0.1862117E-08
   maximum displ.:     0.0001098 α      in ANC's #6, #14, #26, ...

   *** GEOMETRY OPTIMIZATION CONVERGED AFTER 7 ITERATIONS ***

------------------------------------------------------------------------
 total energy gain   :        -0.0010432 Eh       -0.6546 kcal/mol
 total RMSD          :         0.0399540 a0        0.0211 Å
 total power (kW/mol):        -0.3912901 (step)  -85.9307 (real)
------------------------------------------------------------------------

 ANCopt (total)                0 d,  0 h,  0 min,  0.032 sec
 optimizer setup                ...        0 min,  0.000 sec (  0.351%)
 model hessian                  ...        0 min,  0.001 sec (  4.324%)
 ANC generation                 ...        0 min,  0.000 sec (  0.931%)
 coordinate transformation      ...        0 min,  0.000 sec (  0.221%)
 single point calculation       ...        0 min,  0.029 sec ( 89.525%)
 optimization log               ...        0 min,  0.001 sec (  1.593%)
 hessian update                 ...        0 min,  0.000 sec (  0.235%)
 rational function              ...        0 min,  0.000 sec (  1.450%)

================
 final structure:
================
11
 xtb: 6.7.1 (edcfbbe)
C            1.40799726646329       -0.00001019793334        0.00002107961009
C            0.70095573114755        1.19240557922399        0.00001759598218
C           -0.68514612155383        1.13374680617394        0.00001835190247
N           -1.36632094389046        0.00001158864209        0.00002366087910
C           -0.68516392391519       -1.13373433613471        0.00002664239595
C            0.70093701565714       -1.19241488487073        0.00002510029541
H            2.48901579264951       -0.00001866640306        0.00002010529395
H            1.21083400837207        2.14379432821284        0.00001684810505
H           -1.28361458905974        2.03626597299719        0.00002302726897
H           -1.28364667313815       -2.03624403272139        0.00002976015508
H            1.21080038566782       -2.14381162068683        0.00002641551174
 
 Bond Distances (Angstroems)
 ---------------------------
C1-C2=1.3863         C1-C6=1.3863         C1-H7=1.0810         C2-C1=1.3863         C2-C3=1.3873         C2-H8=1.0794         
C3-C2=1.3873         C3-N4=1.3226         C3-H9=1.0829         N4-C3=1.3226         N4-C5=1.3226         C5-N4=1.3226         
C5-C6=1.3873         C5-H10=1.0829        C6-C1=1.3863         C6-C5=1.3873         C6-H11=1.0794        H7-C1=1.0810         
H8-C2=1.0794         H9-C3=1.0829         H10-C5=1.0829        H11-C6=1.0794        
 C  H  Rav=1.0811 sigma=0.0016  Rmin=1.0794  Rmax=1.0829     5
 C  C  Rav=1.3868 sigma=0.0005  Rmin=1.3863  Rmax=1.3873     4
 N  C  Rav=1.3226 sigma=0.0000  Rmin=1.3226  Rmax=1.3226     2
 
 selected bond angles (degree)
 --------------------
C6-C1-C2=118.67                H7-C1-C2=120.67                H7-C1-C6=120.67                C3-C2-C1=118.24                
H8-C2-C1=121.15                H8-C2-C3=120.61                N4-C3-C2=123.42                H9-C3-C2=121.13                
H9-C3-N4=115.45                C5-N4-C3=118.00                C6-C5-N4=123.42                H10-C5-N4=115.45               
H10-C5-C6=121.13               C5-C6-C1=118.24                H11-C6-C1=121.15               H11-C6-C5=120.61               
 
 selected dihedral angles (degree)
 ---------------------------------
C3-C2-C1-C6=  0.00            C3-C2-C1-H7=180.00            H8-C2-C1-C6=180.00            H8-C2-C1-H7=  0.00            
N4-C3-C2-C1=  0.00            N4-C3-C2-H8=180.00            H9-C3-C2-C1=180.00            H9-C3-C2-H8=  0.00            
C5-N4-C3-C2=  0.00            C5-N4-C3-H9=180.00            C6-C5-N4-C3=  0.00            H10-C5-N4-C3=180.00           
C5-C6-C1-C2=  0.00            C5-C6-C1-H7=180.00            H11-C6-C1-C2=180.00           H11-C6-C1-H7=  0.00           
C1-C6-C5-N4=  0.00            C1-C6-C5-H10=180.00           H11-C6-C5-N4=180.00           H11-C6-C5-H10=  0.00          
           -------------------------------------------------
          |                Final Singlepoint                |
           -------------------------------------------------

          ...................................................
          :                      SETUP                      :
          :.................................................:
          :  # basis functions                  29          :
          :  # atomic orbitals                  29          :
          :  # shells                           17          :
          :  # electrons                        30          :
          :  max. iterations                    40          :
          :  Hamiltonian                  GFN2-xTB          :
          :  restarted?                      false          :
          :  GBSA solvation                   true          :
          :  PC potential                    false          :
          :  electronic temp.          300.0000000     K    :
          :  accuracy                    1.0000000          :
          :  -> integral cutoff          0.2500000E+02      :
          :  -> integral neglect         0.1000000E-07      :
          :  -> SCF convergence          0.1000000E-05 Eh   :
          :  -> wf. convergence          0.1000000E-03 e    :
          :  Broyden damping             0.4000000          :
          :  net charge                          0          :
          :  unpaired electrons                  0          :
          ...................................................

 iter      E             dE          RMSdq      gap      omega  full diag
   1    -16.4415794 -0.164416E+02  0.117E-05    3.22       0.0  T
   2    -16.4415794 -0.333955E-12  0.642E-06    3.22    4697.9  T
   3    -16.4415794 -0.568434E-13  0.366E-06    3.22    8242.1  T

   *** convergence criteria satisfied after 3 iterations ***

         #    Occupation            Energy/Eh            Energy/eV
      -------------------------------------------------------------
         1        2.0000           -0.6631368             -18.0449
       ...           ...                  ...                  ...
         9        2.0000           -0.5059777             -13.7684
        10        2.0000           -0.4879942             -13.2790
        11        2.0000           -0.4717804             -12.8378
        12        2.0000           -0.4395945             -11.9620
        13        2.0000           -0.4377443             -11.9116
        14        2.0000           -0.4185677             -11.3898
        15        2.0000           -0.3682802             -10.0214 (HOMO)
        16                         -0.2499010              -6.8002 (LUMO)
        17                         -0.2380040              -6.4764
        18                         -0.1116751              -3.0388
        19                          0.1155768               3.1450
        20                          0.1263071               3.4370
       ...                                ...                  ...
        29                          0.6158726              16.7587
      -------------------------------------------------------------
                  HL-Gap            0.1183792 Eh            3.2213 eV
             Fermi-level           -0.3090906 Eh           -8.4108 eV

 SCC (total)                   0 d,  0 h,  0 min,  0.004 sec
 SCC setup                      ...        0 min,  0.000 sec ( 11.280%)
 Dispersion                     ...        0 min,  0.000 sec (  0.776%)
 classical contributions        ...        0 min,  0.000 sec (  0.236%)
 integral evaluation            ...        0 min,  0.001 sec ( 27.561%)
 iterations                     ...        0 min,  0.001 sec ( 20.810%)
 molecular gradient             ...        0 min,  0.002 sec ( 36.079%)
 printout                       ...        0 min,  0.000 sec (  2.430%)

         :::::::::::::::::::::::::::::::::::::::::::::::::::::
         ::                     SUMMARY                     ::
         :::::::::::::::::::::::::::::::::::::::::::::::::::::
         :: total energy             -16.156823220212 Eh    ::
         :: total w/o Gsasa/hb       -16.150394354131 Eh    ::
         :: gradient norm              0.000022913681 Eh/a0 ::
         :: HOMO-LUMO gap              3.221261783785 eV    ::
         ::.................................................::
         :: SCC energy               -16.441574989234 Eh    ::
         :: -> isotropic ES            0.007481538334 Eh    ::
         :: -> anisotropic ES          0.002182571741 Eh    ::
         :: -> anisotropic XC          0.016703666222 Eh    ::
         :: -> dispersion             -0.007242202508 Eh    ::
         :: -> Gsolv                  -0.006740223419 Eh    ::
         ::    -> Gelec               -0.000311357337 Eh    ::
         ::    -> Gsasa               -0.008637009220 Eh    ::
         ::    -> Ghb                  0.000000000000 Eh    ::
         ::    -> Gshift               0.002208143139 Eh    ::
         :: repulsion energy           0.284751769022 Eh    ::
         :: add. restraining           0.000000000000 Eh    ::
         :: total charge               0.000000000000 e     ::
         :::::::::::::::::::::::::::::::::::::::::::::::::::::

           -------------------------------------------------
          |                Property Printout                |
           -------------------------------------------------

    * Orbital Energies and Occupations

         #    Occupation            Energy/Eh            Energy/eV
      -------------------------------------------------------------
         1        2.0000           -0.6631368             -18.0449
       ...           ...                  ...                  ...
         3        2.0000           -0.6280998             -17.0915
         4        2.0000           -0.5907681             -16.0756
         5        2.0000           -0.5845136             -15.9054
         6        2.0000           -0.5405546             -14.7092
         7        2.0000           -0.5159404             -14.0395
         8        2.0000           -0.5065687             -13.7844
         9        2.0000           -0.5059777             -13.7684
        10        2.0000           -0.4879942             -13.2790
        11        2.0000           -0.4717804             -12.8378
        12        2.0000           -0.4395945             -11.9620
        13        2.0000           -0.4377443             -11.9116
        14        2.0000           -0.4185677             -11.3898
        15        2.0000           -0.3682802             -10.0214 (HOMO)
        16                         -0.2499010              -6.8002 (LUMO)
        17                         -0.2380040              -6.4764
        18                         -0.1116751              -3.0388
        19                          0.1155768               3.1450
        20                          0.1263071               3.4370
        21                          0.1571541               4.2764
        22                          0.1787769               4.8648
        23                          0.1800195               4.8986
        24                          0.2995393               8.1509
        25                          0.3879614              10.5570
        26                          0.4186147              11.3911
       ...                                ...                  ...
        29                          0.6158726              16.7587
      -------------------------------------------------------------
                  HL-Gap            0.1183792 Eh            3.2213 eV
             Fermi-level           -0.3090906 Eh           -8.4108 eV

     #   Z          covCN         q      C6AA      α(0)
     1   6 C        2.929    -0.010    28.267     8.719
     2   6 C        2.914    -0.038    28.937     8.821
     3   6 C        2.914     0.060    26.665     8.468
     4   7 N        1.835    -0.224    26.726     7.661
     5   6 C        2.914     0.060    26.665     8.468
     6   6 C        2.914    -0.038    28.937     8.821
     7   1 H        0.926     0.038     2.478     2.462
     8   1 H        0.926     0.038     2.474     2.460
     9   1 H        0.925     0.038     2.476     2.461
    10   1 H        0.925     0.038     2.476     2.461
    11   1 H        0.926     0.038     2.474     2.460

 Mol. C6AA /au·bohr⁶  :       1553.412853
 Mol. C8AA /au·bohr⁸  :      37446.494760
 Mol. α(0) /au        :         63.259968


Wiberg/Mayer (AO) data.
largest (>0.10) Wiberg bond orders for each atom

 ---------------------------------------------------------------------------
     #   Z sym  total        # sym  WBO       # sym  WBO       # sym  WBO
 ---------------------------------------------------------------------------
     1   6 C    3.991 --     2 C    1.443     6 C    1.443     7 H    0.970
                             4 N    0.104
     2   6 C    3.992 --     1 C    1.443     3 C    1.427     8 H    0.970
                             5 C    0.117
     3   6 C    3.982 --     4 N    1.441     2 C    1.427     9 H    0.964
                             6 C    0.117
     4   7 N    3.062 --     3 C    1.441     5 C    1.441     1 C    0.104
     5   6 C    3.982 --     4 N    1.441     6 C    1.427    10 H    0.964
                             2 C    0.117
     6   6 C    3.992 --     1 C    1.443     5 C    1.427    11 H    0.970
                             3 C    0.117
     7   1 H    0.999 --     1 C    0.970
     8   1 H    0.999 --     2 C    0.970
     9   1 H    0.999 --     3 C    0.964
    10   1 H    0.999 --     5 C    0.964
    11   1 H    0.999 --     6 C    0.970
 ---------------------------------------------------------------------------

Topologies differ in total number of bonds
Writing topology from bond orders to xtbtopo.mol

molecular dipole:
                 x           y           z       tot (Debye)
 q only:        0.465      -0.000      -0.000
   full:        0.864      -0.000      -0.000       2.197
molecular quadrupole (traceless):
                xx          xy          yy          xz          yz          zz
 q only:       -1.082       0.000       2.445       0.000      -0.000      -1.363
  q+dip:       -1.249       0.000       5.040       0.000      -0.000      -3.791
   full:       -2.855       0.000       3.977       0.000      -0.000      -1.121

           -------------------------------------------------
          |                Geometry Summary                 |
           -------------------------------------------------

      molecular mass/u    :       79.1000865
   center of mass at/Å    :        0.0065077       0.0000008       0.0000222
  moments of inertia/u·Å² :        0.8265447E+02   0.8555596E+02   0.1682104E+03
rotational constants/cm⁻¹ :        0.2039531E+00   0.1970363E+00   0.1002175E+00

 * 11 selected distances

     #   Z          #   Z                                           value/Å
     1   6 C        2   6 C                                       1.3862768
     2   6 C        3   6 C                                       1.3873426
     3   6 C        4   7 N                                       1.3226318
     4   7 N        5   6 C                                       1.3226319
     1   6 C        6   6 C                                       1.3862768
     5   6 C        6   6 C                                       1.3873426 (max)
     1   6 C        7   1 H                                       1.0810186
     2   6 C        8   1 H                                       1.0794057
     3   6 C        9   1 H                                       1.0829153
     5   6 C       10   1 H                                       1.0829153
     6   6 C       11   1 H                                       1.0794057 (min)

 * 3 distinct bonds (by element types)

   Z      Z             #   av. dist./Å        max./Å        min./Å
   1 H    6 C           5     1.0811321     1.0829153     1.0794057
   6 C    6 C           4     1.3868097     1.3873426     1.3862768
   6 C    7 N           2     1.3226319     1.3226319     1.3226318


optimized geometry written to: xtbopt.xyz


           -------------------------------------------------
          | TOTAL ENERGY              -16.156823220212 Eh   |
          | GRADIENT NORM               0.000022913681 Eh/α |
          | HOMO-LUMO GAP               3.221261783785 eV   |
           -------------------------------------------------

------------------------------------------------------------------------
 * finished run on 2024/08/07 at 20:43:24.321     
------------------------------------------------------------------------
 total:
 * wall-time:     0 d,  0 h,  0 min,  0.058 sec
 *  cpu-time:     0 d,  0 h,  0 min,  0.422 sec
 * ratio c/w:     7.268 speedup
 SCF:
 * wall-time:     0 d,  0 h,  0 min,  0.010 sec
 *  cpu-time:     0 d,  0 h,  0 min,  0.072 sec
 * ratio c/w:     7.351 speedup
 ANC optimizer:
 * wall-time:     0 d,  0 h,  0 min,  0.037 sec
 *  cpu-time:     0 d,  0 h,  0 min,  0.276 sec
 * ratio c/w:     7.430 speedup

