11
 energy: -16.155779978573 gnorm: 0.025153539518 xtb: 6.7.1 (edcfbbe)
C            1.40241845130000       -0.00001096280000       -0.00003556180000
C            0.69180638610000        1.17579677890000        0.00002105840000
C           -0.68376359050000        1.11919802500000       -0.00000708790000
N           -1.38805099300000        0.00001000180000       -0.00000964380000
C           -0.68378089630000       -1.11918809690000       -0.00000314810000
C            0.69178713720000       -1.17580669340000        0.00001336000000
H            2.48064397140000       -0.00001879860000       -0.00002563580000
H            1.20221835360000        2.12528029350000        0.00005513380000
H           -1.24939226350000        2.03950687790000        0.00008067120000
H           -1.24942254470000       -2.03948143450000        0.00002139030000
H            1.20218393680000       -2.12529545440000        0.00013805110000
11
 energy: -16.156692390576 gnorm: 0.007793043436 xtb: 6.7.1 (edcfbbe)
C            1.41044316437873       -0.00001047136785        0.00002418812040
C            0.69752565929593        1.18758475483180        0.00002439447756
C           -0.68625828731776        1.12827098155194        0.00003256999157
N           -1.37875777659140        0.00001132022465        0.00001854903007
C           -0.68627607521537       -1.12825943524537        0.00002506713848
C            0.69750680568334       -1.18759425682102        0.00003870557179
H            2.49094893766463       -0.00001853904862       -0.00000239676473
H            1.20448326090379        2.14087022340591        0.00001246696249
H           -1.26869265736738        2.04186774005615        0.00002130916452
H           -1.26872498360708       -2.04184493025774        0.00001134422117
H            1.20444990057258       -2.14088685082986        0.00004238948668
11
 energy: -16.156803420438 gnorm: 0.003087195575 xtb: 6.7.1 (edcfbbe)
C            1.41076736525923       -0.00001023810988        0.00002002717727
C            0.70022190814929        1.19155383543286        0.00001450775129
C           -0.68604579152391        1.13215504079159        0.00001910028754
N           -1.37079460790260        0.00001171332780        0.00002074528940
C           -0.68606363134748       -1.13214269898369        0.00002401345424
C            0.70020314923455       -1.19156312726006        0.00002465119695
H            2.49157559520977       -0.00001858143152        0.00002163573616
H            1.20714287571258        2.14480942850237        0.00001377586346
H           -1.27871796305762        2.03954881003903        0.00003004311428
H           -1.27875047773979       -2.03952700968287        0.00002882447533
H            1.20710952640598       -2.14482663612562        0.00003126305407
11
 energy: -16.156820541088 gnorm: 0.001300699303 xtb: 6.7.1 (edcfbbe)
C            1.40928494827553       -0.00001017507336        0.00002229002819
C            0.70102233861448        1.19238987819272        0.00002006939104
C           -0.68550073207832        1.13344452261887        0.00002427348840
N           -1.36710497592399        0.00001169813250        0.00002654912532
C           -0.68551854532045       -1.13343197647811        0.00002709640445
C            0.70100358027634       -1.19239913099041        0.00002498464761
H            2.49015196820397       -0.00001866134403        0.00002051375863
H            1.20917008983303        2.14476071943180        0.00001383354383
H           -1.28248251556399        2.03742084329382        0.00001719922599
H           -1.28251472828772       -2.03739914711372        0.00002763403854
H            1.20913652037111       -2.14477803417009        0.00002414374800
11
 energy: -16.156822864252 gnorm: 0.000634652298 xtb: 6.7.1 (edcfbbe)
C            1.40772813527536       -0.00001018259775        0.00002037068069
C            0.70110083714741        1.19240128026168        0.00001746792132
C           -0.68506162720026        1.13388142161304        0.00001706801052
N           -1.36568601262143        0.00001158543187        0.00002327265877
C           -0.68507942005441       -1.13386890226626        0.00002607905276
C            0.70108209509573       -1.19241057460424        0.00002432236079
H            2.48872700160197       -0.00001870644931        0.00002050412823
H            1.21088111693375        2.14378599911611        0.00001814858958
H           -1.28392981732210        2.03596447537009        0.00002343333417
H           -1.28396176024025       -2.03594256954064        0.00003151168037
H            1.21084739978422       -2.14380328983459        0.00002640898278
11
 energy: -16.156823208298 gnorm: 0.000114977562 xtb: 6.7.1 (edcfbbe)
C            1.40797546327658       -0.00001019705126        0.00002110028029
C            0.70095654705817        1.19235544334458        0.00002080929349
C           -0.68515022827123        1.13372424292372        0.00002374578758
N           -1.36633509714579        0.00001158812425        0.00002579631752
C           -0.68516803182684       -1.13371177065290        0.00002649195908
C            0.70093782423329       -1.19236475123309        0.00002437370390
H            2.48899923932550       -0.00001867626327        0.00001900824895
H            1.21074427856549        2.14379283399757        0.00001611117857
H           -1.28349531825278        2.03629342806928        0.00001672846265
H           -1.28352736731586       -2.03627148549643        0.00002873733603
H            1.21071063875346       -2.14381011926244        0.00002568483194
11
 energy: -16.156823220174 gnorm: 0.000022977598 xtb: 6.7.1 (edcfbbe)
C            1.40799726646329       -0.00001019793334        0.00002107961009
C            0.70095573114755        1.19240557922399        0.00001759598218
C           -0.68514612155383        1.13374680617394        0.00001835190247
N           -1.36632094389046        0.00001158864209        0.00002366087910
C           -0.68516392391519       -1.13373433613471        0.00002664239595
C            0.70093701565714       -1.19241488487073        0.00002510029541
H            2.48901579264951       -0.00001866640306        0.00002010529395
H            1.21083400837207        2.14379432821284        0.00001684810505
H           -1.28361458905974        2.03626597299719        0.00002302726897
H           -1.28364667313815       -2.03624403272139        0.00002976015508
H            1.21080038566782       -2.14381162068683        0.00002641551174
