46
 energy: 7.058524402645 gnorm: 540.322593943194 xtb: 6.5.1 (fef0646)
C           -2.90527000000000      -10.02711000000000       -3.31846000000000
S           -2.48384000000000       -9.05575000000000       -1.89542000000000
C           -2.10269000000000       -7.84933000000000       -2.47870000000000
C           -1.64665000000000       -6.81208000000000       -1.65754000000000
C           -1.60635000000000       -5.34820000000000       -1.58959000000000
C           -1.21463000000000       -5.44209000000000       -0.04046000000000
C           -1.27338000000000       -5.54378000000000       -0.03400000000000
O           -1.37673000000000       -6.99124000000000       -0.72256000000000
C           -0.23376000000000       -6.00641000000000        0.72683000000000
C            0.70641000000000       -6.95788000000000       -1.26328000000000
C            1.03785000000000       -5.91602000000000       -2.10037000000000
N            2.10387000000000       -5.67941000000000       -1.46201000000000
C            2.03857000000000       -6.69113000000000       -0.46846000000000
C            1.14927000000000       -7.53501000000000       -0.88364000000000
C            0.49989000000000       -8.51593000000000        0.20852000000000
C            0.31597000000000       -9.80486000000000       -0.34713000000000
C           -0.36188000000000      -10.79265000000000        0.37536000000000
C           -0.58435000000000      -10.62628000000000        1.65347000000000
C           -0.13309000000000       -9.46777000000000        2.29582000000000
C            0.28511000000000       -8.33467000000000        1.56142000000000
C            0.44877000000000       -6.46131000000000        2.14818000000000
C            1.65201000000000       -7.04225000000000        3.91436000000000
C            3.28854000000000       -8.27214000000000        6.74438000000000
C            3.10053000000000       -9.62693000000000        6.28223000000000
C            2.38987000000000       -7.99357000000000        5.17880000000000
C            1.66386000000000       -7.37487000000000        3.76487000000000
C           -2.15372000000000       -7.74779000000000       -3.86727000000000
Se          -1.86996000000000       -6.76177000000000       -4.82706000000000
C           -2.12189000000000       -7.28062000000000       -6.02559000000000
C           -2.56020000000000       -8.55663000000000       -5.90068000000000
C           -2.58148000000000       -8.86769000000000       -4.56199000000000
H           -3.24983000000000      -11.01944000000000       -3.36298000000000
H           -2.19462000000000       -4.95131000000000       -2.38529000000000
H            0.73526000000000       -5.29587000000000       -3.01882000000000
H            2.80872000000000       -5.07699000000000       -1.52803000000000
H            2.70911000000000       -6.80705000000000        0.25911000000000
H            0.68352000000000      -10.01305000000000       -1.29460000000000
H           -0.68616000000000      -11.65476000000000       -0.09393000000000
H           -1.09066000000000      -11.35421000000000        2.18494000000000
H           -0.10532000000000       -9.42737000000000        3.32848000000000
H            4.09607000000000       -8.76408000000000        8.10498000000000
H            2.04407000000000       -9.76095000000000        6.19391000000000
H            3.55878000000000       -9.66862000000000        5.31751000000000
H            2.56013000000000       -6.94911000000000        5.63641000000000
H           -1.99203000000000       -6.76041000000000       -6.90443000000000
H           -2.82988000000000       -9.18154000000000       -6.67817000000000
