      -----------------------------------------------------------      
     |                   =====================                   |     
     |                           x T B                           |     
     |                   =====================                   |     
     |                         S. Grimme                         |     
     |          Mulliken Center for Theoretical Chemistry        |     
     |                    University of Bonn                     |     
      -----------------------------------------------------------      

   * xtb version 6.5.1 (fef0646) compiled by 'conda@b96dff2e9fd6' on 2023-01-04

   xtb is free software: you can redistribute it and/or modify it under
   the terms of the GNU Lesser General Public License as published by
   the Free Software Foundation, either version 3 of the License, or
   (at your option) any later version.
   
   xtb is distributed in the hope that it will be useful,
   but WITHOUT ANY WARRANTY; without even the implied warranty of
   MERCHANTABILITY or FITNESS FOR A PARTICULAR PURPOSE.  See the
   GNU Lesser General Public License for more details.
   
   Cite this work as:
   * C. Bannwarth, E. Caldeweyher, S. Ehlert, A. Hansen, P. Pracht,
     J. Seibert, S. Spicher, S. Grimme, WIREs Comput. Mol. Sci., 2020, 11,
     e01493. DOI: 10.1002/wcms.1493
   
   for GFN2-xTB:
   * C. Bannwarth, S. Ehlert and S. Grimme., J. Chem. Theory Comput., 2019,
     15, 1652-1671. DOI: 10.1021/acs.jctc.8b01176
   for GFN1-xTB:
   * S. Grimme, C. Bannwarth, P. Shushkov, J. Chem. Theory Comput., 2017,
     13, 1989-2009. DOI: 10.1021/acs.jctc.7b00118
   for GFN0-xTB:
   * P. Pracht, E. Caldeweyher, S. Ehlert, S. Grimme, ChemRxiv, 2019, preprint.
     DOI: 10.26434/chemrxiv.8326202.v1
   for GFN-FF:
   * S. Spicher and S. Grimme, Angew. Chem. Int. Ed., 2020, 59, 15665-15673.
     DOI: 10.1002/anie.202004239
   
   for ALPB and GBSA implicit solvation:
   * S. Ehlert, M. Stahn, S. Spicher, S. Grimme, J. Chem. Theory Comput.,
     2021, 17, 4250-4261. DOI: 10.1021/acs.jctc.1c00471
   
   for DFT-D4:
   * E. Caldeweyher, C. Bannwarth and S. Grimme, J. Chem. Phys., 2017,
     147, 034112. DOI: 10.1063/1.4993215
   * E. Caldeweyher, S. Ehlert, A. Hansen, H. Neugebauer, S. Spicher,
     C. Bannwarth and S. Grimme, J. Chem. Phys., 2019, 150, 154122.
     DOI: 10.1063/1.5090222
   * E. Caldeweyher, J.-M. Mewes, S. Ehlert and S. Grimme, Phys. Chem. Chem. Phys.
     2020, 22, 8499-8512. DOI: 10.1039/D0CP00502A
   
   for sTDA-xTB:
   * S. Grimme and C. Bannwarth, J. Chem. Phys., 2016, 145, 054103.
     DOI: 10.1063/1.4959605
   
   in the mass-spec context:
   * V. Asgeirsson, C. Bauer and S. Grimme, Chem. Sci., 2017, 8, 4879.
     DOI: 10.1039/c7sc00601b
   * J. Koopman and S. Grimme, ACS Omega 2019, 4, 12, 15120-15133.
     DOI: 10.1021/acsomega.9b02011
   
   for metadynamics refer to:
   * S. Grimme, J. Chem. Theory Comput., 2019, 155, 2847-2862
     DOI: 10.1021/acs.jctc.9b00143
   
   for SPH calculations refer to:
   * S. Spicher and S. Grimme, J. Chem. Theory Comput., 2021, 17, 1701-1714
     DOI: 10.1021/acs.jctc.0c01306
   
   with help from (in alphabetical order)
   P. Atkinson, C. Bannwarth, F. Bohle, G. Brandenburg, E. Caldeweyher
   M. Checinski, S. Dohm, S. Ehlert, S. Ehrlich, I. Gerasimov, C. Hölzer
   A. Katbashev, J. Koopman, C. Lavigne, S. Lehtola, F. März, M. Müller,
   F. Musil, H. Neugebauer, J. Pisarek, C. Plett, P. Pracht, F. Pultar,
   J. Seibert, P. Shushkov, S. Spicher, M. Stahn, M. Steiner, T. Strunk,
   J. Stückrath, T. Rose, and J. Unsleber
   
 * started run on 2024/06/14 at 03:01:39.440     

           -------------------------------------------------
          |                Calculation Setup                |
           -------------------------------------------------

          program call               : xtb crest_best.xyz --opt normal -c 0 --iterations 4000
          coordinate file            : crest_best.xyz
          omp threads                :                     8

   ID    Z sym.   atoms
    1    7 N      1, 21
    2    6 C      2-13, 15-20, 22-28, 30-32
    3    8 O      14, 29
    4    1 H      33-48

           -------------------------------------------------
          |                 G F N 2 - x T B                 |
           -------------------------------------------------

        Reference                      10.1021/acs.jctc.8b01176
      * Hamiltonian:
        H0-scaling (s, p, d)           1.850000    2.230000    2.230000
        zeta-weighting                 0.500000
      * Dispersion:
        s8                             2.700000
        a1                             0.520000
        a2                             5.000000
        s9                             5.000000
      * Repulsion:
        kExp                           1.500000    1.000000
        rExp                           1.000000
      * Coulomb:
        alpha                          2.000000
        third order                    shell-resolved
        anisotropic                    true
        a3                             3.000000
        a5                             4.000000
        cn-shift                       1.200000
        cn-exp                         4.000000
        max-rad                        5.000000


          ...................................................
          :                      SETUP                      :
          :.................................................:
          :  # basis functions                 144          :
          :  # atomic orbitals                 144          :
          :  # shells                           80          :
          :  # electrons                       150          :
          :  max. iterations                  4000          :
          :  Hamiltonian                  GFN2-xTB          :
          :  restarted?                      false          :
          :  GBSA solvation                  false          :
          :  PC potential                    false          :
          :  electronic temp.          300.0000000     K    :
          :  accuracy                    1.0000000          :
          :  -> integral cutoff          0.2500000E+02      :
          :  -> integral neglect         0.1000000E-07      :
          :  -> SCF convergence          0.1000000E-05 Eh   :
          :  -> wf. convergence          0.1000000E-03 e    :
          :  Broyden damping             0.4000000          :
          ...................................................

 iter      E             dE          RMSdq      gap      omega  full diag
   1    -82.7691314 -0.827691E+02  0.486E+00    0.24       0.0  T
   2    -79.7614678  0.300766E+01  0.571E+00    0.26       1.0  T
   3    -82.5404494 -0.277898E+01  0.347E+00    1.18       1.0  T
   4    -82.6913128 -0.150863E+00  0.315E+00    0.32       1.0  T
   5    -82.8480049 -0.156692E+00  0.212E+00    0.25       1.0  T
   6    -82.6195755  0.228429E+00  0.310E+00    0.95       1.0  T
   7    -82.6913909 -0.718155E-01  0.285E+00    0.65       1.0  T
   8    -82.7544422 -0.630513E-01  0.263E+00    0.27       1.0  T
   9    -82.8146185 -0.601764E-01  0.236E+00    0.77       1.0  T
  10    -82.8937822 -0.791636E-01  0.208E+00    0.56       1.0  T
  11    -82.9086872 -0.149050E-01  0.201E+00    0.50       1.0  T
  12    -83.2301523 -0.321465E+00  0.150E-01    0.06       1.0  T
  13    -82.9192230  0.310929E+00  0.199E+00    0.42       1.0  T
  14    -83.1264665 -0.207243E+00  0.114E+00    0.10       1.0  T
  15    -83.1113840  0.150824E-01  0.122E+00    0.08       1.0  T
  16    -83.2307459 -0.119362E+00  0.386E-02    0.06       1.0  T
  17    -83.1840822  0.466637E-01  0.760E-01    0.06       1.0  T
  18    -83.2281453 -0.440631E-01  0.183E-01    0.06       1.0  T
  19    -83.2277249  0.420399E-03  0.197E-01    0.06       1.0  T
  20    -83.2304112 -0.268631E-02  0.750E-02    0.06       1.0  T
  21    -83.2302845  0.126736E-03  0.848E-02    0.06       1.0  T
  22    -83.2308404 -0.555883E-03  0.173E-02    0.06       1.0  T
  23    -83.2308499 -0.953115E-05  0.135E-02    0.06       1.1  T
  24    -83.2308618 -0.119528E-04  0.598E-03    0.06       2.4  T
  25    -83.2308642 -0.236735E-05  0.263E-03    0.06       5.5  T
  26    -83.2308648 -0.552034E-06  0.137E-04    0.06     105.1  T
  27    -83.2308638  0.937802E-06  0.340E-03    0.06       4.2  T
  28    -83.2308643 -0.463541E-06  0.242E-03    0.06       6.0  T
  29    -83.2308648 -0.474112E-06  0.106E-04    0.06     136.5  T

   *** convergence criteria satisfied after 29 iterations ***

         #    Occupation            Energy/Eh            Energy/eV
      -------------------------------------------------------------
         1        2.0000           -0.7375065             -20.0686
       ...           ...                  ...                  ...
        69        2.0000           -0.3914864             -10.6529
        70        2.0000           -0.3811656             -10.3720
        71        2.0000           -0.3787356             -10.3059
        72        2.0000           -0.3694235             -10.0525
        73        2.0000           -0.3597076              -9.7881
        74        1.9999           -0.3360084              -9.1433
        75        1.5069           -0.3272928              -8.9061 (HOMO)
        76        0.4932           -0.3251704              -8.8483 (LUMO)
        77                         -0.2814721              -7.6592
        78                         -0.2425953              -6.6014
        79                         -0.2355539              -6.4097
        80                         -0.2310717              -6.2878
       ...                                ...                  ...
       144                          0.7405919              20.1525
      -------------------------------------------------------------
                  HL-Gap            0.0021224 Eh            0.0578 eV
             Fermi-level           -0.3262316 Eh           -8.8772 eV

 SCC (total)                   0 d,  0 h,  0 min,  0.611 sec
 SCC setup                      ...        0 min,  0.000 sec (  0.046%)
 Dispersion                     ...        0 min,  0.001 sec (  0.155%)
 classical contributions        ...        0 min,  0.001 sec (  0.207%)
 integral evaluation            ...        0 min,  0.013 sec (  2.144%)
 iterations                     ...        0 min,  0.580 sec ( 94.846%)
 molecular gradient             ...        0 min,  0.014 sec (  2.286%)
 printout                       ...        0 min,  0.002 sec (  0.291%)

         :::::::::::::::::::::::::::::::::::::::::::::::::::::
         ::                     SUMMARY                     ::
         :::::::::::::::::::::::::::::::::::::::::::::::::::::
         :: total energy             -81.878919211267 Eh    ::
         :: gradient norm              0.109591710476 Eh/a0 ::
         :: HOMO-LUMO gap              0.057753426593 eV    ::
         ::.................................................::
         :: SCC energy               -83.230864767987 Eh    ::
         :: -> isotropic ES            0.020578990116 Eh    ::
         :: -> anisotropic ES          0.012002001948 Eh    ::
         :: -> anisotropic XC          0.033355962426 Eh    ::
         :: -> dispersion             -0.061625243842 Eh    ::
         :: repulsion energy           1.352806189572 Eh    ::
         :: add. restraining           0.000000000000 Eh    ::
         :: total charge               0.000000000000 e     ::
         :::::::::::::::::::::::::::::::::::::::::::::::::::::

      ----------------------------------------------------------- 
     |                   =====================                   |
     |                        A N C O P T                        |
     |                   =====================                   |
     |               Approximate Normal Coordinate               |
     |                Rational Function Optimizer                |
      ----------------------------------------------------------- 

          ...................................................
          :                      SETUP                      :
          :.................................................:
          :   optimization level            normal          :
          :   max. optcycles                   200          :
          :   ANC micro-cycles                  20          :
          :   degrees of freedom               138          :
          :.................................................:
          :   RF solver                   davidson          :
          :   write xtbopt.log                true          :
          :   linear?                        false          :
          :   energy convergence         0.5000000E-05 Eh   :
          :   grad. convergence          0.1000000E-02 Eh/α :
          :   maximium RF displ.         1.0000000          :
          :   Hlow (freq-cutoff)         0.1000000E-01      :
          :   Hmax (freq-cutoff)         5.0000000          :
          :   S6 in model hess.         20.0000000          :
          ...................................................

generating ANC from model Hessian ...
Using Lindh-Hessian (1995)
 Shifting diagonal of input Hessian by    1.0693435380852555E-002
 Lowest  eigenvalues of input Hessian
    0.010000    0.000000    0.000000    0.000000    0.000000    0.000000
    0.000000    0.010822    0.011254    0.011474    0.011658    0.012011
    0.012706    0.013634    0.013738    0.015661    0.015902    0.016871
 Highest eigenvalues
    2.021951    2.040036    2.061507    2.104008    2.122890    2.149083


........................................................................
.............................. CYCLE    1 ..............................
........................................................................
   1    -83.2308648 -0.832309E+02  0.134E-04    0.06       0.0  T
   2    -83.2308577  0.704840E-05  0.926E-03    0.06       1.6  T
   3    -83.2308648 -0.704883E-05  0.112E-04    0.06     128.9  T
   4    -83.2308648 -0.992998E-09  0.197E-05    0.06     734.3  T
   5    -83.2308648  0.261053E-10  0.265E-05    0.06     545.4  T
     SCC iter.                  ...        0 min,  0.276 sec
     gradient                   ...        0 min,  0.016 sec
 * total energy  :   -81.8789192 Eh     change       -0.8418226E-09 Eh
   gradient norm :     0.1095927 Eh/α   predicted     0.0000000E+00 (-100.00%)
   displ. norm   :     0.2923315 α      lambda       -0.1821590E-01
   maximum displ.:     0.1389147 α      in ANC's #56, #58, #68, ...

........................................................................
.............................. CYCLE    2 ..............................
........................................................................
   1    -83.1999981 -0.832000E+02  0.976E-01    0.10       0.0  T
   2    -82.2351747  0.964823E+00  0.338E+00    0.82       1.0  T
   3    -82.7761813 -0.541007E+00  0.254E+00    0.44       1.0  T
   4    -82.9247469 -0.148566E+00  0.211E+00    0.15       1.0  T
   5    -83.0731399 -0.148393E+00  0.159E+00    0.16       1.0  T
   6    -83.0267851  0.463548E-01  0.178E+00    0.20       1.0  T
   7    -83.0934596 -0.666744E-01  0.152E+00    0.14       1.0  T
   8    -83.2741764 -0.180717E+00  0.197E-01    0.06       1.0  T
   9    -83.2772802 -0.310387E-02  0.126E-02    0.06       1.1  T
  10    -83.2755476  0.173263E-02  0.147E-01    0.06       1.0  T
  11    -83.2766441 -0.109647E-02  0.889E-02    0.06       1.0  T
  12    -83.2766261  0.179355E-04  0.903E-02    0.06       1.0  T
  13    -83.2772375 -0.611410E-03  0.233E-02    0.06       1.0  T
  14    -83.2772722 -0.346657E-04  0.106E-02    0.06       1.4  T
  15    -83.2772807 -0.846748E-05  0.251E-03    0.06       5.7  T
  16    -83.2772811 -0.457350E-06  0.794E-04    0.06      18.2  T
  17    -83.2772812 -0.331612E-07  0.460E-04    0.06      31.4  T
     SCC iter.                  ...        0 min,  0.362 sec
     gradient                   ...        0 min,  0.015 sec
 * total energy  :   -81.8922286 Eh     change       -0.1330936E-01 Eh
   gradient norm :     0.0513373 Eh/α   predicted    -0.9894016E-02 ( -25.66%)
   displ. norm   :     0.2945200 α      lambda       -0.8081862E-02
   maximum displ.:     0.1475307 α      in ANC's #56, #58, #13, ...

........................................................................
.............................. CYCLE    3 ..............................
........................................................................
   1    -83.2389626 -0.832390E+02  0.892E-01    0.09       0.0  T
   2    -82.3504823  0.888480E+00  0.326E+00    0.88       1.0  T
   3    -82.8158340 -0.465352E+00  0.250E+00    0.38       1.0  T
   4    -83.0243883 -0.208554E+00  0.187E+00    0.12       1.0  T
   5    -83.0084935  0.158948E-01  0.192E+00    0.28       1.0  T
   6    -83.0098792 -0.138571E-02  0.193E+00    0.29       1.0  T
   7    -83.0618133 -0.519342E-01  0.174E+00    0.19       1.0  T
   8    -83.3015292 -0.239716E+00  0.928E-02    0.06       1.0  T
   9    -83.2706910  0.308382E-01  0.628E-01    0.08       1.0  T
  10    -83.2992120 -0.285210E-01  0.194E-01    0.06       1.0  T
  11    -83.2924501  0.676188E-02  0.349E-01    0.07       1.0  T
  12    -83.3021038 -0.965370E-02  0.342E-02    0.06       1.0  T
  13    -83.3018095  0.294268E-03  0.694E-02    0.06       1.0  T
  14    -83.3021956 -0.386077E-03  0.383E-04    0.06      37.7  T
  15    -83.3021946  0.957911E-06  0.348E-03    0.06       4.2  T
  16    -83.3021954 -0.802085E-06  0.142E-03    0.06      10.1  T
  17    -83.3021952  0.194608E-06  0.211E-03    0.06       6.8  T
  18    -83.3021956 -0.354625E-06  0.164E-04    0.06      88.1  T
  19    -83.3021956 -0.435051E-09  0.146E-04    0.06      98.8  T
     SCC iter.                  ...        0 min,  0.404 sec
     gradient                   ...        0 min,  0.016 sec
 * total energy  :   -81.8968875 Eh     change       -0.4658977E-02 Eh
   gradient norm :     0.0158729 Eh/α   predicted    -0.4391451E-02 (  -5.74%)
   displ. norm   :     0.1507829 α      lambda       -0.8653296E-03
   maximum displ.:     0.0777494 α      in ANC's #13, #27, #16, ...

........................................................................
.............................. CYCLE    4 ..............................
........................................................................
   1    -83.2959820 -0.832960E+02  0.161E-01    0.06       0.0  T
   2    -82.7794743  0.516508E+00  0.250E+00    0.53       1.0  T
   3    -83.2931177 -0.513643E+00  0.242E-01    0.06       1.0  T
   4    -83.2849935  0.812422E-02  0.398E-01    0.07       1.0  T
   5    -83.2975265 -0.125330E-01  0.418E-02    0.06       1.0  T
   6    -83.2968605  0.666073E-03  0.998E-02    0.06       1.0  T
   7    -83.2976664 -0.805941E-03  0.290E-03    0.06       5.0  T
   8    -83.2976638  0.262976E-05  0.634E-03    0.06       2.3  T
   9    -83.2976666 -0.283954E-05  0.227E-03    0.06       6.4  T
  10    -83.2976670 -0.366995E-06  0.764E-04    0.06      18.9  T
  11    -83.2976670 -0.408311E-07  0.267E-04    0.06      54.1  T
     SCC iter.                  ...        0 min,  0.278 sec
     gradient                   ...        0 min,  0.017 sec
 * total energy  :   -81.8974917 Eh     change       -0.6041885E-03 Eh
   gradient norm :     0.0110937 Eh/α   predicted    -0.4425454E-03 ( -26.75%)
   displ. norm   :     0.1463126 α      lambda       -0.4057239E-03
   maximum displ.:     0.0879525 α      in ANC's #13, #9, #16, ...

........................................................................
.............................. CYCLE    5 ..............................
........................................................................
   1    -83.2913047 -0.832913E+02  0.944E-02    0.06       0.0  T
   2    -82.9911867  0.300118E+00  0.191E+00    0.29       1.0  T
   3    -83.2914248 -0.300238E+00  0.703E-02    0.06       1.0  T
   4    -83.2887342  0.269062E-02  0.193E-01    0.06       1.0  T
   5    -83.2904162 -0.168207E-02  0.129E-01    0.06       1.0  T
   6    -83.2917275 -0.131121E-02  0.184E-02    0.06       1.0  T
   7    -83.2917492 -0.217865E-04  0.876E-03    0.06       1.6  T
   8    -83.2917553 -0.602129E-05  0.110E-03    0.06      13.1  T
   9    -83.2917552  0.216064E-07  0.118E-03    0.06      12.2  T
  10    -83.2917553 -0.934416E-07  0.432E-04    0.06      33.4  T
  11    -83.2917553  0.109391E-07  0.568E-04    0.06      25.4  T
     SCC iter.                  ...        0 min,  0.273 sec
     gradient                   ...        0 min,  0.026 sec
 * total energy  :   -81.8977339 Eh     change       -0.2421590E-03 Eh
   gradient norm :     0.0042067 Eh/α   predicted    -0.2072073E-03 ( -14.43%)
   displ. norm   :     0.0739140 α      lambda       -0.6987261E-04
   maximum displ.:     0.0417154 α      in ANC's #9, #13, #1, ...

........................................................................
.............................. CYCLE    6 ..............................
........................................................................
   1    -83.2898473 -0.832898E+02  0.118E-01    0.06       0.0  T
   2    -82.9629597  0.326888E+00  0.199E+00    0.45       1.0  T
   3    -83.2898235 -0.326864E+00  0.120E-01    0.06       1.0  T
   4    -83.2906507 -0.827116E-03  0.617E-02    0.06       1.0  T
   5    -83.2909132 -0.262511E-03  0.201E-02    0.06       1.0  T
   6    -83.2906981  0.215030E-03  0.553E-02    0.06       1.0  T
   7    -83.2909419 -0.243736E-03  0.602E-03    0.06       2.4  T
   8    -83.2909444 -0.253774E-05  0.219E-03    0.06       6.6  T
   9    -83.2909447 -0.266647E-06  0.118E-03    0.06      12.2  T
  10    -83.2909448 -0.986688E-07  0.395E-04    0.06      36.6  T
  11    -83.2909448  0.550587E-08  0.471E-04    0.06      30.6  T
     SCC iter.                  ...        0 min,  0.271 sec
     gradient                   ...        0 min,  0.036 sec
 * total energy  :   -81.8977842 Eh     change       -0.5031183E-04 Eh
   gradient norm :     0.0021195 Eh/α   predicted    -0.3512925E-04 ( -30.18%)
   displ. norm   :     0.1036442 α      lambda       -0.5940099E-04
   maximum displ.:     0.0619369 α      in ANC's #9, #1, #13, ...

........................................................................
.............................. CYCLE    7 ..............................
........................................................................
   1    -83.2897284 -0.832897E+02  0.142E-01    0.06       0.0  T
   2    -82.9526206  0.337108E+00  0.202E+00    0.53       1.0  T
   3    -83.2889227 -0.336302E+00  0.173E-01    0.06       1.0  T
   4    -83.2894438 -0.521126E-03  0.153E-01    0.06       1.0  T
   5    -83.2912821 -0.183825E-02  0.127E-02    0.06       1.1  T
   6    -83.2910113  0.270802E-03  0.591E-02    0.06       1.0  T
   7    -83.2912882 -0.276945E-03  0.735E-03    0.06       2.0  T
   8    -83.2912926 -0.435368E-05  0.385E-04    0.06      37.5  T
   9    -83.2912926  0.228104E-08  0.400E-04    0.06      36.1  T
  10    -83.2912926 -0.961762E-08  0.184E-04    0.06      78.4  T
     SCC iter.                  ...        0 min,  0.260 sec
     gradient                   ...        0 min,  0.016 sec
 * total energy  :   -81.8978257 Eh     change       -0.4149029E-04 Eh
   gradient norm :     0.0030984 Eh/α   predicted    -0.3002397E-04 ( -27.64%)
   displ. norm   :     0.1053083 α      lambda       -0.4051499E-04
   maximum displ.:     0.0647607 α      in ANC's #9, #1, #13, ...

........................................................................
.............................. CYCLE    8 ..............................
........................................................................
   1    -83.2914594 -0.832915E+02  0.880E-02    0.06       0.0  T
   2    -82.9816497  0.309810E+00  0.194E+00    0.33       1.0  T
   3    -83.2920177 -0.310368E+00  0.175E-02    0.06       1.0  T
   4    -83.2920214 -0.368094E-05  0.105E-02    0.06       1.4  T
   5    -83.2919824  0.390123E-04  0.232E-02    0.06       1.0  T
   6    -83.2920245 -0.421394E-04  0.365E-03    0.06       4.0  T
   7    -83.2920241  0.372367E-06  0.413E-03    0.06       3.5  T
   8    -83.2920255 -0.134272E-05  0.561E-04    0.06      25.7  T
   9    -83.2920255  0.701202E-08  0.612E-04    0.06      23.6  T
  10    -83.2920255 -0.293622E-07  0.112E-04    0.06     129.4  T
     SCC iter.                  ...        0 min,  0.289 sec
     gradient                   ...        0 min,  0.015 sec
 * total energy  :   -81.8978556 Eh     change       -0.2993211E-04 Eh
   gradient norm :     0.0033573 Eh/α   predicted    -0.2048243E-04 ( -31.57%)
   displ. norm   :     0.1073326 α      lambda       -0.3448814E-04
   maximum displ.:     0.0620820 α      in ANC's #1, #9, #11, ...

........................................................................
.............................. CYCLE    9 ..............................
........................................................................
   1    -83.2925884 -0.832926E+02  0.276E-02    0.06       0.0  T
   2    -83.2652754  0.273131E-01  0.578E-01    0.07       1.0  T
   3    -83.2919977 -0.267223E-01  0.876E-02    0.06       1.0  T
   4    -83.2923698 -0.372123E-03  0.525E-02    0.06       1.0  T
   5    -83.2925874 -0.217611E-03  0.972E-03    0.06       1.5  T
   6    -83.2925944 -0.696615E-05  0.309E-03    0.06       4.7  T
   7    -83.2925951 -0.779931E-06  0.230E-04    0.06      62.6  T
   8    -83.2925951  0.286459E-07  0.616E-04    0.06      23.4  T
     SCC iter.                  ...        0 min,  0.242 sec
     gradient                   ...        0 min,  0.019 sec
 * total energy  :   -81.8978815 Eh     change       -0.2586495E-04 Eh
   gradient norm :     0.0022477 Eh/α   predicted    -0.1744367E-04 ( -32.56%)
   displ. norm   :     0.1047705 α      lambda       -0.2671525E-04
   maximum displ.:     0.0595472 α      in ANC's #1, #9, #3, ...

........................................................................
.............................. CYCLE   10 ..............................
........................................................................
   1    -83.2925242 -0.832925E+02  0.531E-02    0.06       0.0  T
   2    -82.9066340  0.385890E+00  0.217E+00    0.17       1.0  T
   3    -83.2927031 -0.386069E+00  0.165E-02    0.06       1.0  T
   4    -83.2926000  0.103177E-03  0.373E-02    0.06       1.0  T
   5    -83.2926475 -0.475229E-04  0.273E-02    0.06       1.0  T
   6    -83.2926994 -0.519440E-04  0.102E-02    0.06       1.4  T
   7    -83.2927072 -0.777508E-05  0.297E-03    0.06       4.9  T
   8    -83.2927077 -0.465622E-06  0.168E-03    0.06       8.6  T
   9    -83.2927078 -0.167925E-06  0.885E-04    0.06      16.3  T
  10    -83.2927079 -0.437394E-07  0.494E-04    0.06      29.2  T
     SCC iter.                  ...        0 min,  0.259 sec
     gradient                   ...        0 min,  0.022 sec
 * total energy  :   -81.8979011 Eh     change       -0.1959015E-04 Eh
   gradient norm :     0.0012316 Eh/α   predicted    -0.1350702E-04 ( -31.05%)
   displ. norm   :     0.1494441 α      lambda       -0.1879375E-04
   maximum displ.:     0.0861073 α      in ANC's #1, #9, #3, ...

........................................................................
.............................. CYCLE   11 ..............................
........................................................................
   1    -83.2920902 -0.832921E+02  0.671E-02    0.06       0.0  T
   2    -82.8647879  0.427302E+00  0.228E+00    0.21       1.0  T
   3    -83.2923609 -0.427573E+00  0.204E-02    0.06       1.0  T
   4    -83.2922981  0.628160E-04  0.298E-02    0.06       1.0  T
   5    -83.2923382 -0.400460E-04  0.177E-02    0.06       1.0  T
   6    -83.2923493 -0.111335E-04  0.122E-02    0.06       1.2  T
   7    -83.2923611 -0.118202E-04  0.204E-03    0.06       7.1  T
   8    -83.2923614 -0.245690E-06  0.988E-04    0.06      14.6  T
   9    -83.2923613  0.586728E-07  0.130E-03    0.06      11.1  T
  10    -83.2923614 -0.121764E-06  0.446E-04    0.06      32.3  T
     SCC iter.                  ...        0 min,  0.251 sec
     gradient                   ...        0 min,  0.025 sec
 * total energy  :   -81.8979182 Eh     change       -0.1715050E-04 Eh
   gradient norm :     0.0021597 Eh/α   predicted    -0.9491118E-05 ( -44.66%)
   displ. norm   :     0.0509001 α      lambda       -0.9796376E-05
   maximum displ.:     0.0253242 α      in ANC's #1, #7, #3, ...

........................................................................
.............................. CYCLE   12 ..............................
........................................................................
   1    -83.2923399 -0.832923E+02  0.118E-02    0.06       0.0  T
   2    -83.2891578  0.318211E-02  0.198E-01    0.06       1.0  T
   3    -83.2923149 -0.315705E-02  0.191E-02    0.06       1.0  T
   4    -83.2923057  0.911830E-05  0.206E-02    0.06       1.0  T
   5    -83.2923406 -0.348479E-04  0.109E-03    0.06      13.2  T
   6    -83.2923406 -0.317856E-07  0.569E-04    0.06      25.4  T
   7    -83.2923406 -0.159822E-07  0.347E-04    0.06      41.5  T
     SCC iter.                  ...        0 min,  0.262 sec
     gradient                   ...        0 min,  0.019 sec
 * total energy  :   -81.8979265 Eh     change       -0.8294175E-05 Eh
   gradient norm :     0.0017443 Eh/α   predicted    -0.4912891E-05 ( -40.77%)
   displ. norm   :     0.1739285 α      lambda       -0.1964244E-04
   maximum displ.:     0.0810848 α      in ANC's #1, #7, #3, ...

........................................................................
.............................. CYCLE   13 ..............................
........................................................................
   1    -83.2923953 -0.832924E+02  0.399E-02    0.06       0.0  T
   2    -83.2686621  0.237331E-01  0.540E-01    0.07       1.0  T
   3    -83.2917433 -0.230812E-01  0.922E-02    0.06       1.0  T
   4    -83.2918673 -0.124020E-03  0.806E-02    0.06       1.0  T
   5    -83.2924012 -0.533934E-03  0.376E-03    0.06       3.8  T
   6    -83.2924019 -0.660184E-06  0.122E-03    0.06      11.8  T
   7    -83.2924017  0.235311E-06  0.204E-03    0.06       7.1  T
   8    -83.2924020 -0.328610E-06  0.249E-04    0.06      57.9  T
   9    -83.2924020 -0.327725E-08  0.606E-05    0.06     238.0  T
     SCC iter.                  ...        0 min,  0.258 sec
     gradient                   ...        0 min,  0.014 sec
 * total energy  :   -81.8979368 Eh     change       -0.1023797E-04 Eh
   gradient norm :     0.0011180 Eh/α   predicted    -0.9955571E-05 (  -2.76%)
   displ. norm   :     0.0418479 α      lambda       -0.3612329E-05
   maximum displ.:     0.0252571 α      in ANC's #1, #9, #7, ...

........................................................................
.............................. CYCLE   14 ..............................
........................................................................
   1    -83.2926260 -0.832926E+02  0.331E-02    0.06       0.0  T
   2    -83.1067266  0.185899E+00  0.151E+00    0.14       1.0  T
   3    -83.2926753 -0.185949E+00  0.203E-02    0.06       1.0  T
   4    -83.2927020 -0.266823E-04  0.736E-03    0.06       2.0  T
   5    -83.2927009  0.109944E-05  0.758E-03    0.06       1.9  T
   6    -83.2927054 -0.449110E-05  0.385E-04    0.06      37.5  T
   7    -83.2927054 -0.948215E-08  0.998E-05    0.06     144.7  T
   8    -83.2927054  0.205940E-07  0.512E-04    0.06      28.2  T
     SCC iter.                  ...        0 min,  0.222 sec
     gradient                   ...        0 min,  0.029 sec
 * total energy  :   -81.8979403 Eh     change       -0.3575584E-05 Eh
   gradient norm :     0.0004272 Eh/α   predicted    -0.1813232E-05 ( -49.29%)
   displ. norm   :     0.0230979 α      lambda       -0.2080997E-05
   maximum displ.:     0.0129107 α      in ANC's #9, #2, #3, ...

   *** GEOMETRY OPTIMIZATION CONVERGED AFTER 14 ITERATIONS ***

------------------------------------------------------------------------
 total energy gain   :        -0.0190211 Eh      -11.9359 kcal/mol
 total RMSD          :         0.1774481 a0        0.0939 Å
 total power (kW/mol):        -3.5671403 (step)  -11.2670 (real)
------------------------------------------------------------------------

 ANCopt (total)                0 d,  0 h,  0 min,  4.432 sec
 optimizer setup                ...        0 min,  0.000 sec (  0.004%)
 model hessian                  ...        0 min,  0.010 sec (  0.222%)
 ANC generation                 ...        0 min,  0.006 sec (  0.144%)
 coordinate transformation      ...        0 min,  0.001 sec (  0.019%)
 single point calculation       ...        0 min,  4.341 sec ( 97.945%)
 optimization log               ...        0 min,  0.003 sec (  0.059%)
 hessian update                 ...        0 min,  0.014 sec (  0.309%)
 rational function              ...        0 min,  0.003 sec (  0.061%)

================
 final structure:
================
48
 xtb: 6.5.1 (fef0646)
N            6.65272231521284        0.92203067394135       -0.12969770460268
C            7.98102244938819        0.66856080052133       -0.20099822573820
C            8.15156172869598       -0.68286477416951       -0.35552232563643
C            6.87452049289881       -1.26052991549270       -0.38098851509522
C            5.94549065205536       -0.24381714499292       -0.23938919334098
C            4.50166949274520       -0.30039291672050       -0.19432185316168
C            3.82989282717454       -1.51283354348206       -0.42168740692166
C            2.46376369041194       -1.60059248196585       -0.34550666050869
C            1.66422985896857       -0.48921652798311       -0.03266406079549
C            2.33137210580294        0.75306243349677        0.10120301797275
C            3.71929947659377        0.82448565743478        0.03971322700297
C            1.52886590713585        1.93327055393492        0.25369344640263
C            1.80860994047464        3.26853378615892        0.39326906582724
O            0.67267596950178        3.98368308192673        0.42717412801765
C           -0.35828462409419        3.13334079720178        0.30904061364402
C            0.10189553595228        1.84749841808491        0.20025133704919
C           -0.56123778911320        0.58122342302742        0.11378864629296
C           -1.93717186011544        0.46699013407294        0.06895956041613
C           -7.20482635843307       -0.63970942292267       -0.28579155761879
C           -8.47788347406885       -0.18920308419408       -0.37867341361321
N           -8.42727844390341        1.18542883838673       -0.40581250479250
C           -7.13448438646313        1.58454402234789       -0.33254859726505
C           -6.31676462338069        0.46451445315194       -0.25249402919923
C           -4.89377434292586        0.46049279430469       -0.15132462769252
C           -4.14859758090021       -0.65760987123239       -0.05847342321549
C           -2.72204530335007       -0.63004088754543        0.05716736657335
C           -1.94386737001510       -1.83516030600700        0.21925101932340
C           -2.31450097879564       -3.13911004964433        0.43461867572726
O           -1.22858572454384       -3.90037437568966        0.60099000748804
C           -0.14315059561540       -3.12424907776074        0.48549462419620
C           -0.49841055192019       -1.81453242091915        0.23569551571909
C            0.22961257406141       -0.58665048958688        0.09244654125497
H            6.24569017522617        1.83514512064934       -0.02320259874530
H            8.70551325480446        1.45657292014014       -0.13717203438678
H            9.08668645261509       -1.19986725486107       -0.44107665243463
H            6.66506791331789       -2.30623923200701       -0.48393619633848
H            4.40178863152278       -2.39161294872805       -0.67388609419896
H            1.99051561204078       -2.53830661354800       -0.57889715485002
H            4.17075116458927        1.79652404753059        0.17305451866583
H            2.72664539444675        3.81454671288550        0.47898805141445
H           -1.34777739287230        3.54363542895078        0.32070431388433
H           -9.41052382855560       -0.71356940657448       -0.42801181345880
H           -9.22207745728126        1.80120401341589       -0.47477396706693
H           -6.86131843743660        2.62212437524475       -0.33413630005022
H           -4.39371260270447        1.42262824804261       -0.14460715831406
H           -4.63672215899637       -1.62101484063118       -0.06592002537748
H           -3.27097144041043       -3.61566836044117        0.50519022528430
H            0.79541899605847       -3.60759147595162        0.66360783866275

 Bond Distances (Angstroems)
 ---------------------------
N1-C2=1.3541         N1-C5=1.3680         N1-H33=1.0054        C2-N1=1.3541         C2-C3=1.3709         C2-H34=1.0723        
C3-C2=1.3709         C3-C4=1.4018         C3-H35=1.0719        C4-C3=1.4018         C4-C5=1.3845         C4-H36=1.0714        
C5-N1=1.3680         C5-C4=1.3845         C5-C6=1.4456         C6-C5=1.4456         C6-C7=1.4046         C6-C11=1.3900        
C7-C6=1.4046         C7-C8=1.3711         C7-H37=1.0784        C8-C7=1.3711         C8-C9=1.4044         C8-H38=1.0760        
C9-C8=1.4044         C9-C10=1.4164        C9-C32=1.4434        C10-C9=1.4164        C10-C11=1.3911       C10-C12=1.4353       
C11-C6=1.3900        C11-C10=1.3911       C11-H39=1.0800       C12-C10=1.4353       C12-C13=1.3714       C12-C16=1.4305       
C13-C12=1.3714       C13-O14=1.3427       C13-H40=1.0716       O14-C13=1.3427       O14-C15=1.3416       C15-O14=1.3416       
C15-C16=1.3700       C15-H41=1.0712       C16-C12=1.4305       C16-C15=1.3700       C16-C17=1.4320       C17-C16=1.4320       
C17-C18=1.3814       C17-C32=1.4106       C18-C17=1.3814       C18-C26=1.3489       C19-C20=1.3536       C19-C23=1.4174       
C20-C19=1.3536       C20-N21=1.3758       C20-H42=1.0711       N21-C20=1.3758       N21-C22=1.3550       N21-H43=1.0078       
C22-N21=1.3550       C22-C23=1.3891       C22-H44=1.0729       C23-C19=1.4174       C23-C22=1.3891       C23-C24=1.4266       
C24-C23=1.4266       C24-C25=1.3469       C24-H45=1.0843       C25-C24=1.3469       C25-C26=1.4315       C25-H46=1.0800       
C26-C18=1.3489       C26-C25=1.4315       C26-C27=1.4437       C27-C26=1.4437       C27-C28=1.3726       C27-C31=1.4457       
C28-C27=1.3726       C28-O29=1.3366       C28-H47=1.0709       O29-C28=1.3366       O29-C30=1.3394       C30-O29=1.3394       
C30-C31=1.3798       C30-H48=1.0706       C31-C27=1.4457       C31-C30=1.3798       C31-C32=1.4347       C32-C9=1.4434        
C32-C17=1.4106       C32-C31=1.4347       H33-N1=1.0054        H34-C2=1.0723        H35-C3=1.0719        H36-C4=1.0714        
H37-C7=1.0784        H38-C8=1.0760        H39-C11=1.0800       H40-C13=1.0716       H41-C15=1.0712       H42-C20=1.0711       
H43-N21=1.0078       H44-C22=1.0729       H45-C24=1.0843       H46-C25=1.0800       H47-C28=1.0709       H48-C30=1.0706       
 C  H  Rav=1.0745 sigma=0.0043  Rmin=1.0706  Rmax=1.0843    14
 C  C  Rav=1.4015 sigma=0.0304  Rmin=1.3469  Rmax=1.4457    30
 N  H  Rav=1.0066 sigma=0.0012  Rmin=1.0054  Rmax=1.0078     2
 N  C  Rav=1.3632 sigma=0.0091  Rmin=1.3541  Rmax=1.3758     4
 O  C  Rav=1.3401 sigma=0.0024  Rmin=1.3366  Rmax=1.3427     4

 selected bond angles (degree)
 --------------------
C5-N1-C2=110.08                H33-N1-C2=124.94               H33-N1-C5=124.97               C3-C2-N1=108.21                
H34-C2-N1=121.47               H34-C2-C3=130.32               C4-C3-C2=107.15                H35-C3-C2=126.37               
H35-C3-C4=126.48               C5-C4-C3=107.87                H36-C4-C3=125.59               H36-C4-C5=126.54               
C4-C5-N1=106.69                C6-C5-N1=123.17                C6-C5-C4=130.14                C7-C6-C5=120.42                
C11-C6-C5=122.39               C11-C6-C7=117.17               C8-C7-C6=121.52                H37-C7-C6=119.18               
H37-C7-C8=119.29               C9-C8-C7=121.94                H38-C8-C7=118.81               H38-C8-C9=119.18               
C10-C9-C8=116.55               C32-C9-C8=122.12               C32-C9-C10=121.28              C11-C10-C9=120.72              
C12-C10-C9=117.90              C12-C10-C11=121.35             

 selected dihedral angles (degree)
 ---------------------------------
C3-C2-N1-C5=359.81            C3-C2-N1-H33=180.51           H34-C2-N1-C5=179.85           H34-C2-N1-H33=  0.55          
C4-C3-C2-N1=  0.15            C4-C3-C2-H34=180.10           H35-C3-C2-N1=180.13           H35-C3-C2-H34=  0.09          
C5-C4-C3-C2=359.94            C5-C4-C3-H35=179.96           H36-C4-C3-C2=180.42           H36-C4-C3-H35=  0.43          
C4-C5-N1-C2=  0.15            C4-C5-N1-H33=179.45           C6-C5-N1-C2=179.75            C6-C5-N1-H33=359.05           
N1-C5-C4-C3=359.94            N1-C5-C4-H36=179.47           C6-C5-C4-C3=180.38            C6-C5-C4-H36=359.90           
C7-C6-C5-N1=174.78            C7-C6-C5-C4=354.28            C11-C6-C5-N1=356.32           C11-C6-C5-C4=175.82           
C8-C7-C6-C5=178.05            C8-C7-C6-C11=356.58           H37-C7-C6-C5=357.28           H37-C7-C6-C11=175.82          
C9-C8-C7-C6=359.77            C9-C8-C7-H37=180.54           H38-C8-C7-C6=176.79           H38-C8-C7-H37=357.56          
C10-C9-C8-C7=  4.65           C10-C9-C8-H38=187.64          C32-C9-C8-C7=182.11           C32-C9-C8-H38=  5.10          
C11-C10-C9-C8=354.51          C11-C10-C9-C32=177.02         C12-C10-C9-C8=172.35          C12-C10-C9-C32=354.86         
           -------------------------------------------------
          |                Final Singlepoint                |
           -------------------------------------------------

          ...................................................
          :                      SETUP                      :
          :.................................................:
          :  # basis functions                 144          :
          :  # atomic orbitals                 144          :
          :  # shells                           80          :
          :  # electrons                       150          :
          :  max. iterations                  4000          :
          :  Hamiltonian                  GFN2-xTB          :
          :  restarted?                      false          :
          :  GBSA solvation                  false          :
          :  PC potential                    false          :
          :  electronic temp.          300.0000000     K    :
          :  accuracy                    1.0000000          :
          :  -> integral cutoff          0.2500000E+02      :
          :  -> integral neglect         0.1000000E-07      :
          :  -> SCF convergence          0.1000000E-05 Eh   :
          :  -> wf. convergence          0.1000000E-03 e    :
          :  Broyden damping             0.4000000          :
          ...................................................

 iter      E             dE          RMSdq      gap      omega  full diag
   1    -83.2927054 -0.832927E+02  0.212E-04    0.06       0.0  T
   2    -83.2926875  0.179360E-04  0.148E-02    0.06       1.0  T
   3    -83.2927054 -0.179388E-04  0.107E-04    0.06     134.9  T
   4    -83.2927054 -0.910362E-09  0.149E-05    0.06     969.4  T
   5    -83.2927054  0.682121E-12  0.135E-05    0.06    1066.1  T

   *** convergence criteria satisfied after 5 iterations ***

         #    Occupation            Energy/Eh            Energy/eV
      -------------------------------------------------------------
         1        2.0000           -0.7438598             -20.2415
       ...           ...                  ...                  ...
        69        2.0000           -0.3920081             -10.6671
        70        2.0000           -0.3831243             -10.4253
        71        2.0000           -0.3756648             -10.2224
        72        2.0000           -0.3689908             -10.0407
        73        2.0000           -0.3620415              -9.8517
        74        2.0000           -0.3414513              -9.2914
        75        1.5123           -0.3239698              -8.8157 (HOMO)
        76        0.4877           -0.3218196              -8.7572 (LUMO)
        77                         -0.2785756              -7.5804
        78                         -0.2406347              -6.5480
        79                         -0.2350026              -6.3947
        80                         -0.2278005              -6.1988
       ...                                ...                  ...
       144                          0.7685722              20.9139
      -------------------------------------------------------------
                  HL-Gap            0.0021502 Eh            0.0585 eV
             Fermi-level           -0.3228947 Eh           -8.7864 eV

 SCC (total)                   0 d,  0 h,  0 min,  0.192 sec
 SCC setup                      ...        0 min,  0.000 sec (  0.210%)
 Dispersion                     ...        0 min,  0.001 sec (  0.449%)
 classical contributions        ...        0 min,  0.000 sec (  0.212%)
 integral evaluation            ...        0 min,  0.005 sec (  2.356%)
 iterations                     ...        0 min,  0.170 sec ( 88.330%)
 molecular gradient             ...        0 min,  0.015 sec (  7.673%)
 printout                       ...        0 min,  0.001 sec (  0.758%)

         :::::::::::::::::::::::::::::::::::::::::::::::::::::
         ::                     SUMMARY                     ::
         :::::::::::::::::::::::::::::::::::::::::::::::::::::
         :: total energy             -81.897940360140 Eh    ::
         :: gradient norm              0.000428186347 Eh/a0 ::
         :: HOMO-LUMO gap              0.058511065818 eV    ::
         ::.................................................::
         :: SCC energy               -83.292705419029 Eh    ::
         :: -> isotropic ES            0.020938207894 Eh    ::
         :: -> anisotropic ES          0.010143827695 Eh    ::
         :: -> anisotropic XC          0.033091208038 Eh    ::
         :: -> dispersion             -0.061554026045 Eh    ::
         :: repulsion energy           1.395614701616 Eh    ::
         :: add. restraining           0.000000000000 Eh    ::
         :: total charge               0.000000000000 e     ::
         :::::::::::::::::::::::::::::::::::::::::::::::::::::

           -------------------------------------------------
          |                Property Printout                |
           -------------------------------------------------

    * Orbital Energies and Occupations

         #    Occupation            Energy/Eh            Energy/eV
      -------------------------------------------------------------
         1        2.0000           -0.7438598             -20.2415
       ...           ...                  ...                  ...
        63        2.0000           -0.4255687             -11.5803
        64        2.0000           -0.4233418             -11.5197
        65        2.0000           -0.4186083             -11.3909
        66        2.0000           -0.4139224             -11.2634
        67        2.0000           -0.4084496             -11.1145
        68        2.0000           -0.3938555             -10.7174
        69        2.0000           -0.3920081             -10.6671
        70        2.0000           -0.3831243             -10.4253
        71        2.0000           -0.3756648             -10.2224
        72        2.0000           -0.3689908             -10.0407
        73        2.0000           -0.3620415              -9.8517
        74        2.0000           -0.3414513              -9.2914
        75        1.5123           -0.3239698              -8.8157 (HOMO)
        76        0.4877           -0.3218196              -8.7572 (LUMO)
        77                         -0.2785756              -7.5804
        78                         -0.2406347              -6.5480
        79                         -0.2350026              -6.3947
        80                         -0.2278005              -6.1988
        81                         -0.2108173              -5.7366
        82                         -0.1843446              -5.0163
        83                         -0.1755874              -4.7780
        84                         -0.1676715              -4.5626
        85                         -0.1541685              -4.1951
        86                         -0.1401108              -3.8126
       ...                                ...                  ...
       144                          0.7685722              20.9139
      -------------------------------------------------------------
                  HL-Gap            0.0021502 Eh            0.0585 eV
             Fermi-level           -0.3228947 Eh           -8.7864 eV

     #   Z          covCN         q      C6AA      α(0)
     1   7 N        2.823    -0.083    22.847     7.099
     2   6 C        3.033    -0.009    28.211     8.712
     3   6 C        3.046    -0.064    29.542     8.914
     4   6 C        3.066    -0.065    29.534     8.911
     5   6 C        3.077     0.026    27.341     8.573
     6   6 C        2.966     0.005    27.905     8.665
     7   6 C        2.924    -0.039    28.959     8.825
     8   6 C        2.920    -0.040    29.000     8.831
     9   6 C        2.977     0.004    27.923     8.668
    10   6 C        2.978     0.007    27.848     8.656
    11   6 C        2.928    -0.050    29.234     8.867
    12   6 C        3.073    -0.024    28.526     8.757
    13   6 C        3.048     0.058    26.653     8.467
    14   8 O        1.730    -0.171    16.882     5.548
    15   6 C        3.041     0.061    26.590     8.458
    16   6 C        3.082    -0.017    28.339     8.727
    17   6 C        2.974     0.019    27.579     8.614
    18   6 C        2.038    -0.062    32.679     9.233
    19   6 C        2.151    -0.111    33.759     9.393
    20   6 C        3.012    -0.009    28.229     8.715
    21   7 N        2.809    -0.087    22.937     7.113
    22   6 C        3.047    -0.012    28.272     8.721
    23   6 C        3.082    -0.006    28.082     8.687
    24   6 C        2.900    -0.024    28.597     8.768
    25   6 C        2.902    -0.045    29.111     8.847
    26   6 C        2.959     0.023    27.501     8.602
    27   6 C        3.117    -0.016    28.235     8.703
    28   6 C        3.025     0.059    26.647     8.467
    29   8 O        1.729    -0.164    16.776     5.530
    30   6 C        3.048     0.055    26.722     8.478
    31   6 C        3.054    -0.024    28.537     8.761
    32   6 C        2.976    -0.001    28.041     8.686
    33   1 H        0.860     0.157     1.355     1.823
    34   1 H        0.926     0.028     2.621     2.532
    35   1 H        0.926     0.026     2.637     2.540
    36   1 H        0.926     0.027     2.634     2.538
    37   1 H        0.926     0.037     2.495     2.470
    38   1 H        0.926     0.035     2.517     2.481
    39   1 H        0.926     0.018     2.762     2.599
    40   1 H        0.926     0.042     2.428     2.436
    41   1 H        0.926     0.049     2.334     2.389
    42   1 H        0.926     0.026     2.643     2.542
    43   1 H        0.860     0.154     1.377     1.838
    44   1 H        0.926     0.028     2.618     2.530
    45   1 H        0.925     0.033     2.544     2.494
    46   1 H        0.926     0.043     2.410     2.428
    47   1 H        0.926     0.052     2.297     2.370
    48   1 H        0.926     0.051     2.306     2.375

 Mol. C6AA /au·bohr⁶  :      36681.473597
 Mol. C8AA /au·bohr⁸  :     940374.816742
 Mol. α(0) /au        :        308.382796


Wiberg/Mayer (AO) data.
largest (>0.10) Wiberg bond orders for each atom

 ---------------------------------------------------------------------------
     #   Z sym  total        # sym  WBO       # sym  WBO       # sym  WBO
 ---------------------------------------------------------------------------
     1   7 N    3.580 --     2 C    1.249     5 C    1.190    33 H    0.942
     2   6 C    3.928 --     3 C    1.520     1 N    1.249    34 H    0.971
                             5 C    0.119
     3   6 C    3.978 --     2 C    1.520     4 C    1.366    35 H    0.975
     4   6 C    3.970 --     5 C    1.449     3 C    1.366    36 H    0.973
     5   6 C    3.942 --     4 C    1.449     1 N    1.190     6 C    1.107
                             2 C    0.119
     6   6 C    3.968 --    11 C    1.395     7 C    1.309     5 C    1.107
     7   6 C    3.985 --     8 C    1.521     6 C    1.309    37 H    0.967
     8   6 C    3.974 --     7 C    1.521     9 C    1.317    38 H    0.962
     9   6 C    3.968 --     8 C    1.317    10 C    1.282    32 C    1.158
    10   6 C    3.976 --    11 C    1.382     9 C    1.282    12 C    1.125
    11   6 C    3.988 --     6 C    1.395    10 C    1.382    39 H    0.963
    12   6 C    3.977 --    13 C    1.504    16 C    1.189    10 C    1.125
    13   6 C    3.894 --    12 C    1.504    14 O    1.143    40 H    0.966
                            15 C    0.167
    14   8 O    2.457 --    15 C    1.146    13 C    1.143
    15   6 C    3.880 --    16 C    1.500    14 O    1.146    41 H    0.966
                            13 C    0.167
    16   6 C    3.968 --    15 C    1.500    12 C    1.189    17 C    1.118
    17   6 C    3.952 --    18 C    1.321    32 C    1.315    16 C    1.118
    18   6 C    3.131 --    26 C    1.533    17 C    1.321
    19   6 C    3.001 --    20 C    1.602    23 C    1.232
    20   6 C    3.904 --    19 C    1.602    21 N    1.163    42 H    0.971
                            22 C    0.130
    21   7 N    3.530 --    22 C    1.258    20 C    1.163    43 H    0.946
    22   6 C    3.871 --    23 C    1.403    21 N    1.258    44 H    0.967
                            20 C    0.130
    23   6 C    3.941 --    22 C    1.403    19 C    1.232    24 C    1.161
    24   6 C    3.961 --    25 C    1.687    23 C    1.161    45 H    0.957
    25   6 C    3.973 --    24 C    1.687    26 C    1.148    46 H    0.962
    26   6 C    3.945 --    18 C    1.533    25 C    1.148    27 C    1.079
    27   6 C    3.910 --    28 C    1.480    31 C    1.176    26 C    1.079
    28   6 C    3.881 --    27 C    1.480    29 O    1.152    47 H    0.965
                            30 C    0.184
    29   8 O    2.467 --    28 C    1.152    30 C    1.150
    30   6 C    3.869 --    31 C    1.467    29 O    1.150    48 H    0.960
                            28 C    0.184
    31   6 C    3.979 --    30 C    1.467    27 C    1.176    32 C    1.174
    32   6 C    3.912 --    17 C    1.315    31 C    1.174     9 C    1.158
    33   1 H    0.975 --     1 N    0.942
    34   1 H    0.999 --     2 C    0.971
    35   1 H    0.999 --     3 C    0.975
    36   1 H    0.999 --     4 C    0.973
    37   1 H    0.997 --     7 C    0.967
    38   1 H    0.998 --     8 C    0.962
    39   1 H    0.999 --    11 C    0.963
    40   1 H    0.998 --    13 C    0.966
    41   1 H    0.997 --    15 C    0.966
    42   1 H    0.998 --    20 C    0.971
    43   1 H    0.971 --    21 N    0.946
    44   1 H    0.994 --    22 C    0.967
    45   1 H    0.997 --    24 C    0.957
    46   1 H    0.997 --    25 C    0.962
    47   1 H    0.997 --    28 C    0.965
    48   1 H    0.997 --    30 C    0.960
 ---------------------------------------------------------------------------

Topologies differ in total number of bonds
Writing topology from bond orders to xtbtopo.mol

molecular dipole:
                 x           y           z       tot (Debye)
 q only:       -0.060       0.737      -0.023
   full:       -0.338       1.265       0.008       3.328
molecular quadrupole (traceless):
                xx          xy          yy          xz          yz          zz
 q only:       16.863      -3.555      -6.075       2.029      -0.434     -10.788
  q+dip:       26.923      -6.197       0.445       3.285       0.158     -27.368
   full:       23.106      -6.382      -4.604       3.241      -0.497     -18.502

           -------------------------------------------------
          |                Geometry Summary                 |
           -------------------------------------------------

      molecular mass/u    :      412.4398735
   center of mass at/Å    :        0.0040931      -0.0036777      -0.0005433
  moments of inertia/u·Å² :        0.1481617E+04   0.8958561E+04   0.1036263E+05
rotational constants/cm⁻¹ :        0.1137786E-01   0.1881734E-02   0.1626771E-02

 * 50 selected distances

     #   Z          #   Z                                           value/Å
     1   7 N        2   6 C                                       1.3541463
     2   6 C        3   6 C                                       1.3708803
     3   6 C        4   6 C                                       1.4018489
     1   7 N        5   6 C                                       1.3679950
     4   6 C        5   6 C                                       1.3845043
     6   6 C        7   6 C                                       1.4046322
     7   6 C        8   6 C                                       1.3710632
     8   6 C        9   6 C                                       1.4043795
     9   6 C       10   6 C                                       1.4164239
     6   6 C       11   6 C                                       1.3900458
    10   6 C       11   6 C                                       1.3911237
    10   6 C       12   6 C                                       1.4353261
    12   6 C       13   6 C                                       1.3713739
    13   6 C       14   8 O                                       1.3427339
    14   8 O       15   6 C                                       1.3416101
    12   6 C       16   6 C                                       1.4305446
    15   6 C       16   6 C                                       1.3700335
    16   6 C       17   6 C                                       1.4320176
    17   6 C       18   6 C                                       1.3813956
    19   6 C       20   6 C                                       1.3536092
    20   6 C       21   7 N                                       1.3758309
    21   7 N       22   6 C                                       1.3549824
    22   6 C       23   6 C                                       1.3890792
    23   6 C       24   6 C                                       1.4265879
    24   6 C       25   6 C                                       1.3468718
    18   6 C       26   6 C                                       1.3489414
    25   6 C       26   6 C                                       1.4314973
    27   6 C       28   6 C                                       1.3726026
    28   6 C       29   8 O                                       1.3365684
    29   8 O       30   6 C                                       1.3393578
    27   6 C       31   6 C                                       1.4456977 (max)
    30   6 C       31   6 C                                       1.3798432
    17   6 C       32   6 C                                       1.4106132
    31   6 C       32   6 C                                       1.4346541
     1   7 N       33   1 H                                       1.0053828 (min)
     2   6 C       34   1 H                                       1.0723451
     3   6 C       35   1 H                                       1.0719466
     4   6 C       36   1 H                                       1.0714368
     7   6 C       37   1 H                                       1.0783888
     8   6 C       38   1 H                                       1.0759846
    11   6 C       39   1 H                                       1.0800219
    13   6 C       40   1 H                                       1.0715723
    15   6 C       41   1 H                                       1.0712487
    20   6 C       42   1 H                                       1.0710801
    21   7 N       43   1 H                                       1.0077899
    22   6 C       44   1 H                                       1.0729377
    24   6 C       45   1 H                                       1.0843485
    25   6 C       46   1 H                                       1.0800326
    28   6 C       47   1 H                                       1.0709454
    30   6 C       48   1 H                                       1.0706341

 * 5 distinct bonds (by element types)

   Z      Z             #   av. dist./Å        max./Å        min./Å
   1 H    6 C          14     1.0744945     1.0843485     1.0706341
   6 C    6 C          26     1.3959842     1.4456977     1.3468718
   1 H    7 N           2     1.0065863     1.0077899     1.0053828
   6 C    7 N           4     1.3632387     1.3758309     1.3541463
   6 C    8 O           4     1.3400676     1.3427339     1.3365684


optimized geometry written to: xtbopt.xyz


           -------------------------------------------------
          | TOTAL ENERGY              -81.897940360140 Eh   |
          | GRADIENT NORM               0.000428186347 Eh/α |
          | HOMO-LUMO GAP               0.058511065818 eV   |
           -------------------------------------------------

------------------------------------------------------------------------
 * finished run on 2024/06/14 at 03:01:44.703     
------------------------------------------------------------------------
 total:
 * wall-time:     0 d,  0 h,  0 min,  5.263 sec
 *  cpu-time:     0 d,  0 h,  0 min, 27.836 sec
 * ratio c/w:     5.289 speedup
 SCF:
 * wall-time:     0 d,  0 h,  0 min,  0.612 sec
 *  cpu-time:     0 d,  0 h,  0 min,  3.760 sec
 * ratio c/w:     6.149 speedup
 ANC optimizer:
 * wall-time:     0 d,  0 h,  0 min,  4.626 sec
 *  cpu-time:     0 d,  0 h,  0 min, 23.917 sec
 * ratio c/w:     5.170 speedup

