48
 energy: -81.878919212108 gnorm: 0.109592697704 xtb: 6.5.1 (fef0646)
N            6.64659767730000        0.98366641960000       -0.11681217140000
C            7.97019300930000        0.69778965820000       -0.22965223070000
C            8.11126257340000       -0.66623144970000       -0.39052255830000
C            6.84035601390000       -1.22750595580000       -0.37639176860000
C            5.92054670380000       -0.19400488240000       -0.20483256420000
C            4.47377577660000       -0.30486864360000       -0.13320035800000
C            3.82183477780000       -1.53918891020000       -0.29224555320000
C            2.46115170850000       -1.63533282450000       -0.22506399170000
C            1.64814696910000       -0.51440693290000        0.02512852970000
C            2.30394152270000        0.74558935070000        0.12252421510000
C            3.69012338070000        0.82159821010000        0.05991602660000
C            1.49603939410000        1.93580779440000        0.23214628110000
C            1.81261458010000        3.28934614570000        0.32463020560000
O            0.67438614030000        4.03265485210000        0.36255116090000
C           -0.37337029970000        3.16982745440000        0.29004068270000
C            0.09523844610000        1.86126643700000        0.20477581460000
C           -0.58451820830000        0.58930211090000        0.12994499630000
C           -1.94600427370000        0.49447033140000        0.08895212180000
C           -7.13773600660000       -0.61790759950000       -0.23203450900000
C           -8.39094112940000       -0.20127305980000       -0.34724428200000
N           -8.38394315060000        1.20786805820000       -0.40302722360000
C           -7.11431229970000        1.63447628790000       -0.31940490420000
C           -6.27095500760000        0.49226452560000       -0.20812469430000
C           -4.87358954130000        0.50153710610000       -0.10714699710000
C           -4.11748940000000       -0.64104936840000       -0.01273293670000
C           -2.71826830020000       -0.64371518820000        0.07069804300000
C           -1.95689027960000       -1.86351226690000        0.16220904050000
C           -2.34834810580000       -3.19646618480000        0.29240737190000
O           -1.25552664040000       -3.98385222850000        0.44872598410000
C           -0.16649443620000       -3.17868350930000        0.41713983530000
C           -0.53645380380000       -1.84071653270000        0.20777873500000
C            0.20390394650000       -0.60279728180000        0.12187794550000
H            6.24818793660000        1.91600954480000        0.01038994770000
H            8.76807754610000        1.42424351430000       -0.20148738960000
H            9.04068918300000       -1.20070134690000       -0.50727536400000
H            6.61253795010000       -2.27484156030000       -0.48314643450000
H            4.40935436380000       -2.41811542620000       -0.49017627150000
H            2.00012201040000       -2.57831851410000       -0.44422047310000
H            4.15922985430000        1.78258757580000        0.14767367590000
H            2.81147146980000        3.70282554420000        0.35631275420000
H           -1.41542125710000        3.46069089440000        0.29986663580000
H           -9.26971598980000       -0.83033305820000       -0.39113740750000
H           -9.23322741420000        1.77140719230000       -0.49269115270000
H           -6.79281846830000        2.66290901800000       -0.33523395780000
H           -4.37145641770000        1.45168886280000       -0.11061827550000
H           -4.62798040730000       -1.58666487140000       -0.01340926560000
H           -3.36697257360000       -3.55939575370000        0.29826727710000
H            0.82396576240000       -3.56066022730000        0.61666310080000
48
 energy: -81.892228567460 gnorm: 0.051337309742 xtb: 6.5.1 (fef0646)
N            6.64873689740995        0.96189823674043       -0.11794277370147
C            7.97126770069873        0.68985603442888       -0.23037486324211
C            8.12235119648492       -0.66642625597709       -0.39150779940488
C            6.84619851804537       -1.23153417254935       -0.37681106506196
C            5.92873329066477       -0.20616725004898       -0.20460875609643
C            4.48719021623686       -0.29767497402384       -0.13128044523585
C            3.83175898442179       -1.52796881917471       -0.29977479640490
C            2.46718663322610       -1.62031657631919       -0.23946602858924
C            1.65294406163483       -0.50435963328795        0.02096895368990
C            2.31213509094246        0.74823882185805        0.12174444846155
C            3.69724288940372        0.82765776577102        0.05921906279199
C            1.50635298092014        1.93074988662188        0.23392430444270
C            1.80522774663696        3.27398007594751        0.32683921586827
O            0.67050771401432        4.00017636119063        0.35950191977024
C           -0.36785710046178        3.14533556192969        0.28533650514924
C            0.09454922782635        1.84849920901120        0.20572177354143
C           -0.57583836581919        0.57883104070599        0.13977542823948
C           -1.94208697277903        0.47586404279418        0.09142560441716
C           -7.14318664279438       -0.62082415674572       -0.23244393851581
C           -8.41345522080802       -0.19795550970299       -0.34837304958020
N           -8.39376752741384        1.19275059632906       -0.40165910646589
C           -7.11555518937254        1.61354099540971       -0.31924221327348
C           -6.27459848915965        0.49419202556913       -0.20843280986941
C           -4.86786721335966        0.50063993399887       -0.10804079908150
C           -4.13226942505581       -0.63639206982480       -0.01915524673398
C           -2.72154497313436       -0.63926540797107        0.06563606033713
C           -1.95474356793229       -1.85198143633823        0.16313031133987
C           -2.34326861785112       -3.17133163577658        0.29550587690250
O           -1.26184230107194       -3.94730180986713        0.46048099331337
C           -0.17220602245374       -3.16303175719215        0.41944312188211
C           -0.52301283907513       -1.83235188340632        0.21908545359070
C            0.21564724429734       -0.60161471997653        0.12845684394613
H            6.25216665094514        1.88264687366585        0.00754594746011
H            8.74422694814497        1.43558135246580       -0.19746752273051
H            9.05094122639692       -1.19248093194122       -0.50701056383788
H            6.61859240189978       -2.27428888744721       -0.48075279714515
H            4.41412037596627       -2.41281314986222       -0.49769119751390
H            2.00884347523988       -2.56670559797712       -0.45542037782029
H            4.15809522685245        1.79709370650283        0.14853331486950
H            2.77487582712791        3.73503560024435        0.36418047806418
H           -1.38922460277717        3.47811003938182        0.29969661553559
H           -9.30639765131365       -0.79199878578194       -0.39561119684472
H           -9.22345114724590        1.76526662313093       -0.49083436076207
H           -6.81144150358157        2.64354507678726       -0.33593204378483
H           -4.35595270290543        1.45307186514537       -0.11054958859731
H           -4.64919961935232       -1.58335935630045       -0.01882696014123
H           -3.33868708913265       -3.57395691272222        0.29909397560783
H            0.78887754521330       -3.59117672361522        0.62675173761401
48
 energy: -81.896887544282 gnorm: 0.015872928471 xtb: 6.5.1 (fef0646)
N            6.65106494156867        0.94086434355750       -0.11782302643329
C            7.97452220434365        0.68198032630599       -0.23022833901619
C            8.13703377976011       -0.66946105835487       -0.39188940109814
C            6.85805591132245       -1.24169644526892       -0.37688366023745
C            5.93918592495091       -0.22248945304791       -0.20621506140281
C            4.49965973049518       -0.29412534549771       -0.13528832998469
C            3.83841366654776       -1.52085432614963       -0.30943917063288
C            2.47164928814441       -1.61277561790473       -0.24616214973053
C            1.65931952398232       -0.49827405870220        0.01893623206748
C            2.32177883465681        0.74944481213012        0.12061022169128
C            3.70687681003020        0.83073054339981        0.05651644107175
C            1.51799942256593        1.92873906186568        0.23752456229637
C            1.79831691504295        3.26701309576103        0.33028270508609
O            0.66563269229016        3.98055823298904        0.35933528658364
C           -0.36330242761483        3.12816266783764        0.28444314841321
C            0.09494575384910        1.83969423887942        0.20609958260572
C           -0.56531050224261        0.57178679537376        0.14304683420642
C           -1.93801890230481        0.46364923592108        0.09376417603598
C           -7.15491499091265       -0.62405073034299       -0.23397862109454
C           -8.43476446623879       -0.19441232265152       -0.34866119964539
N           -8.40621441329995        1.17884168417833       -0.40037729945732
C           -7.12140319890359        1.59796243211360       -0.31905381950515
C           -6.28685510519705        0.49600848390091       -0.21129342124096
C           -4.86854253437373        0.49714253135589       -0.11285180255245
C           -4.14684405587020       -0.63434914639207       -0.02752288077303
C           -2.72367086943334       -0.63185766698692        0.06313395813488
C           -1.95150659027319       -1.84116508719075        0.16772565459426
C           -2.33415841605459       -3.15220521437588        0.30497749399192
O           -1.26027914191743       -3.92279391638556        0.46498224379873
C           -0.17188922498401       -3.14977988843606        0.42630019321827
C           -0.50923345466578       -1.82591261881585        0.22698796171518
C            0.22592376697794       -0.59895599867722        0.12867308197922
H            6.25311787776304        1.85413072873544        0.00616634701744
H            8.71876811145517        1.45376329398717       -0.19196514118731
H            9.06645082464604       -1.18824414693357       -0.50755107603090
H            6.63479141482128       -2.28333780111187       -0.47890332360062
H            4.41498261448789       -2.40943888552317       -0.51164697505664
H            2.01253399431975       -2.56313959308974       -0.45307015049094
H            4.15752107373021        1.80813442687443        0.14938608587141
H            2.73694044757152        3.78580476906676        0.37523900660259
H           -1.36470932035892        3.51074156695162        0.29965598628679
H           -9.34614184911773       -0.75260090668557       -0.39876998741938
H           -9.21819443720890        1.76561835476303       -0.48958767779548
H           -6.84224272265494        2.63405048089764       -0.33677201448839
H           -4.35166414644602        1.45142564566462       -0.11286480757953
H           -4.66306933328060       -1.58412653244975       -0.02802555356710
H           -3.30669817725182       -3.60253446068260        0.30985976136600
H            0.76545804108213       -3.62838321905308        0.62596557178647
48
 energy: -81.897491732743 gnorm: 0.011093671388 xtb: 6.5.1 (fef0646)
N            6.65417549102072        0.93402626805141       -0.11823629953866
C            7.97909971710233        0.68028967648831       -0.22863725833684
C            8.14670487591929       -0.67062063036150       -0.39064523875308
C            6.86896487379855       -1.24789119301101       -0.37836935819967
C            5.94595374303258       -0.23101498662441       -0.20885996948744
C            4.50520015144967       -0.29556937969791       -0.14045278329401
C            3.84137565537271       -1.52020010413825       -0.31805743792939
C            2.47517842278088       -1.61208097990906       -0.25040531980643
C            1.66427171163366       -0.49742542917070        0.01779383052546
C            2.32756783777046        0.75037080745961        0.11964755330263
C            3.71381174937107        0.83018220663744        0.05470052667010
C            1.52376352647272        1.93103639054224        0.23984886553091
C            1.79880739456485        3.27082374161988        0.33524500074974
O            0.66379383000026        3.98165879902626        0.36273483642161
C           -0.36327539682005        3.12688714155950        0.28390464869212
C            0.09758979926094        1.83932934649462        0.20668547077234
C           -0.56031057065815        0.57079637916632        0.14346560852354
C           -1.93550284801061        0.46327931842926        0.09506365386956
C           -7.16834464310729       -0.62619523424832       -0.23747194932665
C           -8.44798678646432       -0.19273921760658       -0.34952631466204
N           -8.41611795904972        1.17923787610683       -0.39958209833217
C           -7.12972695949964        1.59724800976570       -0.32028242574799
C           -6.29804859441954        0.49348315918492       -0.21530617354236
C           -4.87579478988683        0.49240579247956       -0.11779805921049
C           -4.15051253998812       -0.63731251823421       -0.03383574131936
C           -2.72375066200713       -0.62951760243878        0.06204743986572
C           -1.95037175891317       -1.83983564844560        0.17274585165278
C           -2.33268918512982       -3.15040249918846        0.31377181451238
O           -1.25922691792461       -3.92200172116511        0.47896522138946
C           -0.16913268454449       -3.15049379140592        0.43101206350384
C           -0.50518355393252       -1.82678071272085        0.22988432335664
C            0.22983117281506       -0.59856499230523        0.12853417140288
H            6.25256435067827        1.84641406184935        0.00549529398633
H            8.71157275071310        1.46312629054235       -0.18698266782155
H            9.07827946438309       -1.18664619387770       -0.50563054554119
H            6.65141651350911       -2.29139616506394       -0.47971526157462
H            4.41633818900746       -2.40832399494025       -0.52612169329309
H            2.01512829359283       -2.56186435196487       -0.45613723413321
H            4.16106265381709        1.80911570270228        0.15035549880694
H            2.72494734823733        3.81079245339015        0.38589966507949
H           -1.35834478733679        3.52521860921573        0.29742336235697
H           -9.36820672844324       -0.73804271066812       -0.39918570488219
H           -9.22272569699004        1.77516107548384       -0.48743886505724
H           -6.86107401257647        2.63617652638871       -0.33807156031527
H           -4.36173138525261        1.44797590817751       -0.11588516756020
H           -4.66118576013105       -1.58965372679270       -0.03686579995368
H           -3.29778204177075       -3.61580092914409        0.32245571968924
H            0.76094203235297       -3.64537751583767        0.62460815335810
48
 energy: -81.897733891707 gnorm: 0.004206652962 xtb: 6.5.1 (fef0646)
N            6.65740850385530        0.92966966662124       -0.11955709053130
C            7.98402162124971        0.67997455982631       -0.22587064660300
C            8.15506056607799       -0.67061440511545       -0.38804076259643
C            6.87923491177903       -1.25208553949978       -0.38045366381587
C            5.95150555300650       -0.23776062764904       -0.21294494958101
C            4.50905368266843       -0.29838786481859       -0.14708477383316
C            3.84280650617129       -1.52117018302781       -0.32855154837815
C            2.47705978409057       -1.61263967612870       -0.25573307633934
C            1.66814536211163       -0.49712591208247        0.01555832891344
C            2.33226784636373        0.75081834576344        0.11897744702551
C            3.71985221225773        0.82821186239071        0.05323145490189
C            1.52865609891593        1.93329622847218        0.24261520563323
C            1.80241367007993        3.27392918432781        0.34166347634122
O            0.66443954606033        3.98409995391200        0.36749017124657
C           -0.36306119807149        3.12714548157092        0.28459083306883
C            0.10123537256454        1.84031847132490        0.20629436308008
C           -0.55692113524121        0.57126023359621        0.14128307418831
C           -1.93370378158563        0.46511428259334        0.09428108917573
C           -7.18433939247781       -0.62833017326640       -0.24341699230333
C           -8.46181359610219       -0.19124634118251       -0.35109850143267
N           -8.42561213628227        1.18223145521803       -0.39853114321347
C           -7.13765527420613        1.59725017876544       -0.32234212125743
C           -6.30942260682806        0.48797268594503       -0.22148097201028
C           -4.88531847107726        0.48532749697017       -0.12397100651142
C           -4.15180944160582       -0.64115437460137       -0.04042081447392
C           -2.72359581896781       -0.62736617508408        0.06075738064248
C           -1.94959504347105       -1.83908743292109        0.17913839649556
C           -2.33223976444307       -3.14923268681635        0.32838682094885
O           -1.25619229287613       -3.92278843831888        0.48848414626456
C           -0.16472401915270       -3.14967626970840        0.43659207477902
C           -0.50322926341803       -1.82711918629895        0.23111469469046
C            0.23210327868398       -0.59777442890131        0.12661263987395
H            6.25177798030663        1.84140262199081        0.00385477374077
H            8.70783372219365        1.47035179312374       -0.18015873431413
H            9.08882108173009       -1.18467668946067       -0.50096390466931
H            6.66843036618125       -2.29767632043244       -0.48178768772278
H            4.41736346858635       -2.40792747940314       -0.54328063382354
H            2.01455709386260       -2.56183539355535       -0.45791113115109
H            4.16521700738662        1.80737822654516        0.15231246023746
H            2.71903533831142        3.82717640597731        0.39853607736088
H           -1.35396366703079        3.53477671113453        0.29584889465445
H           -9.38888803977782       -0.72653145087435       -0.39898678960130
H           -9.22744748345514        1.78719997682939       -0.48345049707524
H           -6.87577449779921        2.63773768000812       -0.33934273556117
H           -4.37709969380757        1.44309809062457       -0.11933268492957
H           -4.65413672381489       -1.59720413276769       -0.04713612504450
H           -3.29233538001666       -3.62393677798009        0.34526667279291
H            0.76189343281369       -3.65311032183573        0.62174615711722
48
 energy: -81.897784203539 gnorm: 0.002119493882 xtb: 6.5.1 (fef0646)
N            6.65835793411280        0.92927802366499       -0.12066802377397
C            7.98563851509685        0.68060741609723       -0.22370018905455
C            8.15735504450129       -0.66985316513150       -0.38575908195929
C            6.88223391609159       -1.25222028917315       -0.38156409294471
C            5.95289747800417       -0.23893073180194       -0.21582667198859
C            4.50996150705570       -0.29965902341103       -0.15106045808337
C            3.84311139484640       -1.52178198879652       -0.33497318684293
C            2.47745865995197       -1.61289165995725       -0.26035057485545
C            1.66913516507934       -0.49734418087311        0.01316715012864
C            2.33356946502989        0.75030339015556        0.11842578034101
C            3.72153535677870        0.82677301327900        0.05267299392751
C            1.53029293492319        1.93327073525669        0.24390267076563
C            1.80542995458013        3.27338789721480        0.34565258563150
O            0.66665463440670        3.98433525165801        0.37175792573434
C           -0.36179948372236        3.12727191184455        0.28553015682164
C            0.10329348154254        1.84079735428470        0.20551994430487
C           -0.55625460686518        0.57187583730075        0.13882957286063
C           -1.93322272349219        0.46647431544491        0.09240272861360
C           -7.19211820551862       -0.62957050803821       -0.24791416735944
C           -8.46817146798491       -0.19045886835728       -0.35234310381967
N           -8.42880122256960        1.18404388003299       -0.39787969063851
C           -7.13971742067307        1.59590422106592       -0.32362537208622
C           -6.31373130873858        0.48351968278595       -0.22577373506700
C           -4.88991833562940        0.48085664545978       -0.12778193941559
C           -4.15124592850478       -0.64278958921605       -0.04378175575117
C           -2.72347355441076       -0.62612247188594        0.06036707786262
C           -1.94964508000489       -1.83830780221471        0.18322685871830
C           -2.33278702160762       -3.14773966517728        0.33714390957136
O           -1.25570350804186       -3.92153331917846        0.49876176314437
C           -0.16339780007761       -3.14825738678263        0.43890522902082
C           -0.50354752541531       -1.82659630070798        0.23074433292668
C            0.23241796080599       -0.59737938685736        0.12418995227435
H            6.25117168392124        1.84051852562766        0.00230875598673
H            8.70775740831369        1.47204134868239       -0.17564397311469
H            9.09180313610334       -1.18354607515453       -0.49650768888457
H            6.67424310323371       -2.29842424655941       -0.48360690603390
H            4.41801825458832       -2.40752356225868       -0.55325091006478
H            2.01382535461083       -2.56103656102120       -0.46385983242224
H            4.16688942896020        1.80547907769006        0.15456234872010
H            2.72012630895320        3.82812483581899        0.40585671673153
H           -1.35206558709933        3.53586923897845        0.29570859985649
H           -9.39708104624237       -0.72244376890753       -0.39891531363983
H           -9.22837966333341        1.79260150945225       -0.48038573351550
H           -6.87765631704464        2.63616135828011       -0.33969896833707
H           -4.38564697162790        1.44042276902471       -0.12123114081530
H           -4.64868267642311       -1.60124712099395       -0.05240653227471
H           -3.29214371379549       -3.62308380313333        0.36040157441349
H            0.76332837313142       -3.65189345171056        0.62125806078682
48
 energy: -81.897825693829 gnorm: 0.003098432848 xtb: 6.5.1 (fef0646)
N            6.65860691182881        0.92949226221055       -0.12207616329915
C            7.98649985244179        0.68158870582064       -0.22029525214051
C            8.15891723996869       -0.66873960398479       -0.38207103225718
C            6.88424353172803       -1.25160589093477       -0.38269072909269
C            5.95364266907050       -0.23923403290053       -0.21973290211765
C            4.51049919431632       -0.30097648998341       -0.15643487476653
C            3.84313942312628       -1.52228390095797       -0.34474437581972
C            2.47742981748096       -1.61287135968761       -0.26918728174068
C            1.66969674485970       -0.49767138785441        0.00810758256811
C            2.33460181746848        0.74915201413436        0.11713859451544
C            3.72270271108931        0.82488094454591        0.05193772283103
C            1.53191150978646        1.93228547270431        0.24556085258452
C            1.80927249566843        3.27132082702622        0.35196905307072
O            0.67041684945997        3.98378362808011        0.37800127068851
C           -0.35916198916478        3.12744200638518        0.28750356487088
C            0.10566993741524        1.84122153911171        0.20425727717741
C           -0.55585811031636        0.57286671248259        0.13458164223105
C           -1.93279983046292        0.46814724167519        0.08831008996731
C           -7.20105542882619       -0.63169051555746       -0.25449024308942
C           -8.47562650734086       -0.18929061327243       -0.35440979016566
N           -8.43159407475955        1.18597659502341       -0.39702649449361
C           -7.14082053861370        1.59278225591546       -0.32524985065821
C           -6.31799590884778        0.47701105888346       -0.23168306228641
C           -4.89486803972156        0.47500430157045       -0.13289253486890
C           -4.15024224036121       -0.64470845657139       -0.04832321601394
C           -2.72326556032448       -0.62445091559249        0.05910600005148
C           -1.94971678498805       -1.83668325338495        0.18889335548476
C           -2.33318893332731       -3.14477005529604        0.35158605276209
O           -1.25502108567253       -3.91877869739974        0.51083350158763
C           -0.16248685991226       -3.14532637770750        0.44380062273964
C           -0.50413569998524       -1.82508365743015        0.23043817399759
C            0.23257577113237       -0.59666141057817        0.11947779531839
H            6.24986040323595        1.84007792735777       -0.00019363613664
H            8.70800293929892        1.47311214521817       -0.16921560725086
H            9.09398812232802       -1.18215611791474       -0.48931451979563
H            6.67884539572779       -2.29816396709418       -0.48611203536154
H            4.41849421576717       -2.40680760843218       -0.56714802888883
H            2.01257817833062       -2.55973964433029       -0.47566701152419
H            4.16855683293296        1.80281425511617        0.15808873536874
H            2.72355118880722        3.82544755409070        0.41654732474684
H           -1.34934679414324        3.53586139292608        0.29652223751334
H           -9.40626736961643       -0.71775424258769       -0.39936034609649
H           -9.22841482365169        1.79836113289510       -0.47595000760753
H           -6.87601625526286        2.63223619677291       -0.33979049778026
H           -4.39545949307271        1.43712076674553       -0.12418417836417
H           -4.64181349441220       -1.60626589254812       -0.05895956202043
H           -3.29258119820162       -3.61927912737010        0.38411496701710
H            0.76534855351580       -3.64771040551982        0.62321446294423
48
 energy: -81.897855625944 gnorm: 0.003357295929 xtb: 6.5.1 (fef0646)
N            6.65786527581321        0.92971498143464       -0.12308248425701
C            7.98610090456973        0.68219486131653       -0.21662749919367
C            8.15934177199289       -0.66804707205132       -0.37801994108561
C            6.88473141048436       -1.25113066818845       -0.38324357038569
C            5.95349170703227       -0.23915965934957       -0.22332976457344
C            4.51037438920056       -0.30196553001220       -0.16193997457151
C            3.84252629160723       -1.52238970311542       -0.35541567074970
C            2.47664571162726       -1.61251920634345       -0.27986507335939
C            1.66961505041213       -0.49780912175141        0.00172682604550
C            2.33508173498109        0.74799842234760        0.11520022971814
C            3.72304191787537        0.82329827601899        0.05084275262697
C            1.53297926878661        1.93096299684729        0.24709019527101
C            1.81218665582031        3.26896704358412        0.35879300643174
O            0.67407764492472        3.98290874722400        0.38549455741155
C           -0.35625518375494        3.12803707738293        0.28980548120700
C            0.10719667438576        1.84168109445661        0.20287909897350
C           -0.55582565173236        0.57405591516171        0.12996563396869
C           -1.93266988104646        0.46942932120036        0.08345535816359
C           -7.20785516829004       -0.63418766963744       -0.26087079016625
C           -8.48144055736828       -0.18807769809200       -0.35684012288290
N           -8.43308550894785        1.18726692170821       -0.39641179811802
C           -7.14080998400225        1.58919621085638       -0.32650005330672
C           -6.32090660782008        0.47092689057255       -0.23713363923808
C           -4.89820631910787        0.46989689574937       -0.13787594867453
C           -4.14947844521668       -0.64667507128268       -0.05284777726891
C           -2.72305387794195       -0.62320288076686        0.05758211593313
C           -1.94950663836572       -1.83487527675022        0.19442642324353
C           -2.33246246089929       -3.14172559762414        0.36645145410193
O           -1.25373735757313       -3.91489086210327        0.52629259524221
C           -0.16140566030561       -3.14203895197809        0.44860921849232
C           -0.50423953397228       -1.82312921810349        0.23012479414405
C            0.23259686592010       -0.59563233464628        0.11396957371188
H            6.24805412720162        1.83988261626776       -0.00287226583746
H            8.70791295666367        1.47325650272684       -0.16291403863312
H            9.09488631360276       -1.18119760383930       -0.48161940996954
H            6.68062025749782       -2.29770957860253       -0.48805499272101
H            4.41795691959666       -2.40597776145781       -0.58151917732776
H            2.01069121024649       -2.55840212995494       -0.48966280593597
H            4.16972341389616        1.80037140132851        0.16158714799511
H            2.72751893603492        3.82098165691934        0.42750137910972
H           -1.34669492778151        3.53589881344836        0.29820542016851