48
 energy: -81.897940360140 gnorm: 0.000428186347 xtb: 6.5.1 (fef0646)
N            6.65272231521284        0.92203067394135       -0.12969770460268
C            7.98102244938819        0.66856080052133       -0.20099822573820
C            8.15156172869598       -0.68286477416951       -0.35552232563643
C            6.87452049289881       -1.26052991549270       -0.38098851509522
C            5.94549065205536       -0.24381714499292       -0.23938919334098
C            4.50166949274520       -0.30039291672050       -0.19432185316168
C            3.82989282717454       -1.51283354348206       -0.42168740692166
C            2.46376369041194       -1.60059248196585       -0.34550666050869
C            1.66422985896857       -0.48921652798311       -0.03266406079549
C            2.33137210580294        0.75306243349677        0.10120301797275
C            3.71929947659377        0.82448565743478        0.03971322700297
C            1.52886590713585        1.93327055393492        0.25369344640263
C            1.80860994047464        3.26853378615892        0.39326906582724
O            0.67267596950178        3.98368308192673        0.42717412801765
C           -0.35828462409419        3.13334079720178        0.30904061364402
C            0.10189553595228        1.84749841808491        0.20025133704919
C           -0.56123778911320        0.58122342302742        0.11378864629296
C           -1.93717186011544        0.46699013407294        0.06895956041613
C           -7.20482635843307       -0.63970942292267       -0.28579155761879
C           -8.47788347406885       -0.18920308419408       -0.37867341361321
N           -8.42727844390341        1.18542883838673       -0.40581250479250
C           -7.13448438646313        1.58454402234789       -0.33254859726505
C           -6.31676462338069        0.46451445315194       -0.25249402919923
C           -4.89377434292586        0.46049279430469       -0.15132462769252
C           -4.14859758090021       -0.65760987123239       -0.05847342321549
C           -2.72204530335007       -0.63004088754543        0.05716736657335
C           -1.94386737001510       -1.83516030600700        0.21925101932340
C           -2.31450097879564       -3.13911004964433        0.43461867572726
O           -1.22858572454384       -3.90037437568966        0.60099000748804
C           -0.14315059561540       -3.12424907776074        0.48549462419620
C           -0.49841055192019       -1.81453242091915        0.23569551571909
C            0.22961257406141       -0.58665048958688        0.09244654125497
H            6.24569017522617        1.83514512064934       -0.02320259874530
H            8.70551325480446        1.45657292014014       -0.13717203438678
H            9.08668645261509       -1.19986725486107       -0.44107665243463
H            6.66506791331789       -2.30623923200701       -0.48393619633848
H            4.40178863152278       -2.39161294872805       -0.67388609419896
H            1.99051561204078       -2.53830661354800       -0.57889715485002
H            4.17075116458927        1.79652404753059        0.17305451866583
H            2.72664539444675        3.81454671288550        0.47898805141445
H           -1.34777739287230        3.54363542895078        0.32070431388433
H           -9.41052382855560       -0.71356940657448       -0.42801181345880
H           -9.22207745728126        1.80120401341589       -0.47477396706693
H           -6.86131843743660        2.62212437524475       -0.33413630005022
H           -4.39371260270447        1.42262824804261       -0.14460715831406
H           -4.63672215899637       -1.62101484063118       -0.06592002537748
H           -3.27097144041043       -3.61566836044117        0.50519022528430
H            0.79541899605847       -3.60759147595162        0.66360783866275
