      -----------------------------------------------------------      
     |                   =====================                   |     
     |                           x T B                           |     
     |                   =====================                   |     
     |                         S. Grimme                         |     
     |          Mulliken Center for Theoretical Chemistry        |     
     |                    University of Bonn                     |     
      -----------------------------------------------------------      

   * xtb version 6.5.1 (fef0646) compiled by 'conda@b96dff2e9fd6' on 2023-01-04

   xtb is free software: you can redistribute it and/or modify it under
   the terms of the GNU Lesser General Public License as published by
   the Free Software Foundation, either version 3 of the License, or
   (at your option) any later version.
   
   xtb is distributed in the hope that it will be useful,
   but WITHOUT ANY WARRANTY; without even the implied warranty of
   MERCHANTABILITY or FITNESS FOR A PARTICULAR PURPOSE.  See the
   GNU Lesser General Public License for more details.
   
   Cite this work as:
   * C. Bannwarth, E. Caldeweyher, S. Ehlert, A. Hansen, P. Pracht,
     J. Seibert, S. Spicher, S. Grimme, WIREs Comput. Mol. Sci., 2020, 11,
     e01493. DOI: 10.1002/wcms.1493
   
   for GFN2-xTB:
   * C. Bannwarth, S. Ehlert and S. Grimme., J. Chem. Theory Comput., 2019,
     15, 1652-1671. DOI: 10.1021/acs.jctc.8b01176
   for GFN1-xTB:
   * S. Grimme, C. Bannwarth, P. Shushkov, J. Chem. Theory Comput., 2017,
     13, 1989-2009. DOI: 10.1021/acs.jctc.7b00118
   for GFN0-xTB:
   * P. Pracht, E. Caldeweyher, S. Ehlert, S. Grimme, ChemRxiv, 2019, preprint.
     DOI: 10.26434/chemrxiv.8326202.v1
   for GFN-FF:
   * S. Spicher and S. Grimme, Angew. Chem. Int. Ed., 2020, 59, 15665-15673.
     DOI: 10.1002/anie.202004239
   
   for ALPB and GBSA implicit solvation:
   * S. Ehlert, M. Stahn, S. Spicher, S. Grimme, J. Chem. Theory Comput.,
     2021, 17, 4250-4261. DOI: 10.1021/acs.jctc.1c00471
   
   for DFT-D4:
   * E. Caldeweyher, C. Bannwarth and S. Grimme, J. Chem. Phys., 2017,
     147, 034112. DOI: 10.1063/1.4993215
   * E. Caldeweyher, S. Ehlert, A. Hansen, H. Neugebauer, S. Spicher,
     C. Bannwarth and S. Grimme, J. Chem. Phys., 2019, 150, 154122.
     DOI: 10.1063/1.5090222
   * E. Caldeweyher, J.-M. Mewes, S. Ehlert and S. Grimme, Phys. Chem. Chem. Phys.
     2020, 22, 8499-8512. DOI: 10.1039/D0CP00502A
   
   for sTDA-xTB:
   * S. Grimme and C. Bannwarth, J. Chem. Phys., 2016, 145, 054103.
     DOI: 10.1063/1.4959605
   
   in the mass-spec context:
   * V. Asgeirsson, C. Bauer and S. Grimme, Chem. Sci., 2017, 8, 4879.
     DOI: 10.1039/c7sc00601b
   * J. Koopman and S. Grimme, ACS Omega 2019, 4, 12, 15120-15133.
     DOI: 10.1021/acsomega.9b02011
   
   for metadynamics refer to:
   * S. Grimme, J. Chem. Theory Comput., 2019, 155, 2847-2862
     DOI: 10.1021/acs.jctc.9b00143
   
   for SPH calculations refer to:
   * S. Spicher and S. Grimme, J. Chem. Theory Comput., 2021, 17, 1701-1714
     DOI: 10.1021/acs.jctc.0c01306
   
   with help from (in alphabetical order)
   P. Atkinson, C. Bannwarth, F. Bohle, G. Brandenburg, E. Caldeweyher
   M. Checinski, S. Dohm, S. Ehlert, S. Ehrlich, I. Gerasimov, C. Hölzer
   A. Katbashev, J. Koopman, C. Lavigne, S. Lehtola, F. März, M. Müller,
   F. Musil, H. Neugebauer, J. Pisarek, C. Plett, P. Pracht, F. Pultar,
   J. Seibert, P. Shushkov, S. Spicher, M. Stahn, M. Steiner, T. Strunk,
   J. Stückrath, T. Rose, and J. Unsleber
   
 * started run on 2024/06/14 at 02:57:44.852     

           -------------------------------------------------
          |                Calculation Setup                |
           -------------------------------------------------

          program call               : xtb crest_best.xyz --opt normal -c 0 --iterations 4000
          coordinate file            : crest_best.xyz
          omp threads                :                     8

   ID    Z sym.   atoms
    1    6 C      1, 3, 4, 6, 8-10, 12, 14, 16-19, 21, 22, 24, 25, 27
    2    7 N      2, 11, 23, 26
    3   16 S      5, 7, 13, 15
    4   34 Se     20
    5    1 H      28-35

           -------------------------------------------------
          |                 G F N 2 - x T B                 |
           -------------------------------------------------

        Reference                      10.1021/acs.jctc.8b01176
      * Hamiltonian:
        H0-scaling (s, p, d)           1.850000    2.230000    2.230000
        zeta-weighting                 0.500000
      * Dispersion:
        s8                             2.700000
        a1                             0.520000
        a2                             5.000000
        s9                             5.000000
      * Repulsion:
        kExp                           1.500000    1.000000
        rExp                           1.000000
      * Coulomb:
        alpha                          2.000000
        third order                    shell-resolved
        anisotropic                    true
        a3                             3.000000
        a5                             4.000000
        cn-shift                       1.200000
        cn-exp                         4.000000
        max-rad                        5.000000


          ...................................................
          :                      SETUP                      :
          :.................................................:
          :  # basis functions                 146          :
          :  # atomic orbitals                 141          :
          :  # shells                           67          :
          :  # electrons                       130          :
          :  max. iterations                  4000          :
          :  Hamiltonian                  GFN2-xTB          :
          :  restarted?                      false          :
          :  GBSA solvation                  false          :
          :  PC potential                    false          :
          :  electronic temp.          300.0000000     K    :
          :  accuracy                    1.0000000          :
          :  -> integral cutoff          0.2500000E+02      :
          :  -> integral neglect         0.1000000E-07      :
          :  -> SCF convergence          0.1000000E-05 Eh   :
          :  -> wf. convergence          0.1000000E-03 e    :
          :  Broyden damping             0.4000000          :
          ...................................................

 iter      E             dE          RMSdq      gap      omega  full diag
   1    -71.3133747 -0.713134E+02  0.506E+00    1.30       0.0  T
   2    -71.3678226 -0.544479E-01  0.286E+00    1.18       1.0  T
   3    -71.3557877  0.120349E-01  0.134E+00    1.05       1.0  T
   4    -71.3764409 -0.206532E-01  0.508E-01    1.01       1.0  T
   5    -71.3806657 -0.422482E-02  0.233E-01    1.08       1.0  T
   6    -71.3814426 -0.776881E-03  0.100E-01    1.07       1.0  T
   7    -71.3816644 -0.221801E-03  0.414E-02    1.08       1.0  T
   8    -71.3816667 -0.235791E-05  0.270E-02    1.08       1.0  T
   9    -71.3816824 -0.156203E-04  0.149E-02    1.07       1.1  T
  10    -71.3816843 -0.188521E-05  0.849E-03    1.07       2.0  T
  11    -71.3816856 -0.138065E-05  0.361E-03    1.07       4.7  T
  12    -71.3816857 -0.112684E-06  0.187E-03    1.07       9.0  T
  13    -71.3816858 -0.431818E-07  0.955E-04    1.07      17.7  T
  14    -71.3816858 -0.335100E-08  0.500E-04    1.07      33.8  T

   *** convergence criteria satisfied after 14 iterations ***

         #    Occupation            Energy/Eh            Energy/eV
      -------------------------------------------------------------
         1        2.0000           -0.7597034             -20.6726
       ...           ...                  ...                  ...
        59        2.0000           -0.4078014             -11.0968
        60        2.0000           -0.4017865             -10.9332
        61        2.0000           -0.3975904             -10.8190
        62        2.0000           -0.3954908             -10.7619
        63        2.0000           -0.3834755             -10.4349
        64        2.0000           -0.3752602             -10.2113
        65        2.0000           -0.3668375              -9.9822 (HOMO)
        66                         -0.3273648              -8.9081 (LUMO)
        67                         -0.2928130              -7.9678
        68                         -0.2729056              -7.4261
        69                         -0.2582570              -7.0275
        70                         -0.2418066              -6.5799
       ...                                ...                  ...
       141                          0.8576604              23.3381
      -------------------------------------------------------------
                  HL-Gap            0.0394727 Eh            1.0741 eV
             Fermi-level           -0.3471011 Eh           -9.4451 eV

 SCC (total)                   0 d,  0 h,  0 min,  0.324 sec
 SCC setup                      ...        0 min,  0.000 sec (  0.058%)
 Dispersion                     ...        0 min,  0.004 sec (  1.229%)
 classical contributions        ...        0 min,  0.000 sec (  0.143%)
 integral evaluation            ...        0 min,  0.023 sec (  6.976%)
 iterations                     ...        0 min,  0.281 sec ( 86.799%)
 molecular gradient             ...        0 min,  0.014 sec (  4.311%)
 printout                       ...        0 min,  0.002 sec (  0.472%)

         :::::::::::::::::::::::::::::::::::::::::::::::::::::
         ::                     SUMMARY                     ::
         :::::::::::::::::::::::::::::::::::::::::::::::::::::
         :: total energy             -70.443012043170 Eh    ::
         :: gradient norm              0.082093734633 Eh/a0 ::
         :: HOMO-LUMO gap              1.074106467465 eV    ::
         ::.................................................::
         :: SCC energy               -71.381685794571 Eh    ::
         :: -> isotropic ES            0.028054319002 Eh    ::
         :: -> anisotropic ES          0.007808894699 Eh    ::
         :: -> anisotropic XC          0.041644151516 Eh    ::
         :: -> dispersion             -0.057937303142 Eh    ::
         :: repulsion energy           0.939306053563 Eh    ::
         :: add. restraining           0.000000000000 Eh    ::
         :: total charge               0.000000000000 e     ::
         :::::::::::::::::::::::::::::::::::::::::::::::::::::

      ----------------------------------------------------------- 
     |                   =====================                   |
     |                        A N C O P T                        |
     |                   =====================                   |
     |               Approximate Normal Coordinate               |
     |                Rational Function Optimizer                |
      ----------------------------------------------------------- 

          ...................................................
          :                      SETUP                      :
          :.................................................:
          :   optimization level            normal          :
          :   max. optcycles                   200          :
          :   ANC micro-cycles                  20          :
          :   degrees of freedom                99          :
          :.................................................:
          :   RF solver                   davidson          :
          :   write xtbopt.log                true          :
          :   linear?                        false          :
          :   energy convergence         0.5000000E-05 Eh   :
          :   grad. convergence          0.1000000E-02 Eh/α :
          :   maximium RF displ.         1.0000000          :
          :   Hlow (freq-cutoff)         0.1000000E-01      :
          :   Hmax (freq-cutoff)         5.0000000          :
          :   S6 in model hess.         20.0000000          :
          ...................................................

generating ANC from model Hessian ...
Using Lindh-Hessian (1995)
 Shifting diagonal of input Hessian by    9.7835903838899615E-003
 Lowest  eigenvalues of input Hessian
    0.000000    0.000000    0.000000    0.000000    0.000000    0.000000
    0.010000    0.010358    0.010446    0.011323    0.012212    0.012638
    0.013454    0.014424    0.015108    0.017991    0.018935    0.020894
 Highest eigenvalues
    1.948466    1.985738    2.040083    2.064025    2.175858    2.186748


........................................................................
.............................. CYCLE    1 ..............................
........................................................................
   1    -71.3816858 -0.713817E+02  0.280E-04    1.07       0.0  T
   2    -71.3816858 -0.976712E-10  0.184E-04    1.07      91.8  T
   3    -71.3816858 -0.230557E-09  0.156E-04    1.07     108.4  T
     SCC iter.                  ...        0 min,  0.133 sec
     gradient                   ...        0 min,  0.012 sec
 * total energy  :   -70.4430120 Eh     change       -0.3624280E-08 Eh
   gradient norm :     0.0820944 Eh/α   predicted     0.0000000E+00 (-100.00%)
   displ. norm   :     0.3121567 α      lambda       -0.1192910E-01
   maximum displ.:     0.1990971 α      in ANC's #14, #23, #21, ...

........................................................................
.............................. CYCLE    2 ..............................
........................................................................
   1    -71.3903396 -0.713903E+02  0.311E-01    1.04       0.0  T
   2    -71.3904576 -0.117989E-03  0.181E-01    1.06       1.0  T
   3    -71.3902774  0.180234E-03  0.100E-01    1.05       1.0  T
   4    -71.3905352 -0.257855E-03  0.376E-02    1.06       1.0  T
   5    -71.3905532 -0.179631E-04  0.219E-02    1.06       1.0  T
   6    -71.3905585 -0.531420E-05  0.100E-02    1.06       1.7  T
   7    -71.3905600 -0.149389E-05  0.596E-03    1.06       2.8  T
   8    -71.3905607 -0.699036E-06  0.311E-03    1.06       5.4  T
   9    -71.3905607 -0.515520E-07  0.136E-03    1.06      12.4  T
  10    -71.3905608 -0.296984E-07  0.690E-04    1.06      24.5  T
  11    -71.3905608 -0.881963E-08  0.276E-04    1.06      61.3  T
     SCC iter.                  ...        0 min,  0.234 sec
     gradient                   ...        0 min,  0.012 sec
 * total energy  :   -70.4511564 Eh     change       -0.8144308E-02 Eh
   gradient norm :     0.0345228 Eh/α   predicted    -0.6548654E-02 ( -19.59%)
   displ. norm   :     0.2834513 α      lambda       -0.3790772E-02
   maximum displ.:     0.2144879 α      in ANC's #14, #23, #9, ...

........................................................................
.............................. CYCLE    3 ..............................
........................................................................
   1    -71.4004297 -0.714004E+02  0.209E-01    1.03       0.0  T
   2    -71.4004750 -0.453240E-04  0.115E-01    1.04       1.0  T
   3    -71.4003576  0.117443E-03  0.732E-02    1.03       1.0  T
   4    -71.4004945 -0.136953E-03  0.313E-02    1.04       1.0  T
   5    -71.4005154 -0.208704E-04  0.162E-02    1.04       1.0  T
   6    -71.4005206 -0.523096E-05  0.643E-03    1.04       2.6  T
   7    -71.4005216 -0.989511E-06  0.260E-03    1.04       6.5  T
   8    -71.4005218 -0.134553E-06  0.128E-03    1.04      13.2  T
   9    -71.4005218 -0.331563E-08  0.665E-04    1.04      25.4  T
  10    -71.4005218 -0.264816E-08  0.442E-04    1.04      38.2  T
     SCC iter.                  ...        0 min,  0.221 sec
     gradient                   ...        0 min,  0.013 sec
 * total energy  :   -70.4534100 Eh     change       -0.2253600E-02 Eh
   gradient norm :     0.0111101 Eh/α   predicted    -0.2047670E-02 (  -9.14%)
   displ. norm   :     0.1414053 α      lambda       -0.5091946E-03
   maximum displ.:     0.0961958 α      in ANC's #14, #9, #2, ...

........................................................................
.............................. CYCLE    4 ..............................
........................................................................
   1    -71.4047040 -0.714047E+02  0.762E-02    1.03       0.0  T
   2    -71.4047068 -0.282802E-05  0.413E-02    1.03       1.0  T
   3    -71.4046832  0.236252E-04  0.273E-02    1.03       1.0  T
   4    -71.4047071 -0.239299E-04  0.110E-02    1.04       1.5  T
   5    -71.4047098 -0.268405E-05  0.479E-03    1.03       3.5  T
   6    -71.4047103 -0.438885E-06  0.154E-03    1.03      11.0  T
   7    -71.4047103 -0.377031E-07  0.794E-04    1.03      21.3  T
   8    -71.4047103 -0.535287E-08  0.485E-04    1.03      34.8  T
     SCC iter.                  ...        0 min,  0.189 sec
     gradient                   ...        0 min,  0.013 sec
 * total energy  :   -70.4537488 Eh     change       -0.3388192E-03 Eh
   gradient norm :     0.0062129 Eh/α   predicted    -0.2596907E-03 ( -23.35%)
   displ. norm   :     0.1110616 α      lambda       -0.1652028E-03
   maximum displ.:     0.0714698 α      in ANC's #2, #9, #14, ...

........................................................................
.............................. CYCLE    5 ..............................
........................................................................
   1    -71.4070112 -0.714070E+02  0.417E-02    1.03       0.0  T
   2    -71.4070128 -0.163642E-05  0.244E-02    1.03       1.0  T
   3    -71.4070068  0.596445E-05  0.142E-02    1.03       1.2  T
   4    -71.4070127 -0.585450E-05  0.685E-03    1.03       2.5  T
   5    -71.4070139 -0.124139E-05  0.329E-03    1.03       5.1  T
   6    -71.4070141 -0.214403E-06  0.117E-03    1.03      14.4  T
   7    -71.4070142 -0.128920E-07  0.684E-04    1.03      24.7  T
   8    -71.4070142 -0.694652E-08  0.343E-04    1.03      49.2  T
     SCC iter.                  ...        0 min,  0.205 sec
     gradient                   ...        0 min,  0.016 sec
 * total energy  :   -70.4538559 Eh     change       -0.1070853E-03 Eh
   gradient norm :     0.0033555 Eh/α   predicted    -0.8362386E-04 ( -21.91%)
   displ. norm   :     0.0884254 α      lambda       -0.5803293E-04
   maximum displ.:     0.0703683 α      in ANC's #2, #9, #5, ...

........................................................................
.............................. CYCLE    6 ..............................
........................................................................
   1    -71.4076636 -0.714077E+02  0.217E-02    1.04       0.0  T
   2    -71.4076641 -0.486124E-06  0.122E-02    1.04       1.4  T
   3    -71.4076631  0.998381E-06  0.630E-03    1.04       2.7  T
   4    -71.4076641 -0.994601E-06  0.297E-03    1.04       5.7  T
   5    -71.4076643 -0.225141E-06  0.169E-03    1.04      10.0  T
   6    -71.4076644 -0.652060E-07  0.628E-04    1.04      26.9  T
   7    -71.4076644 -0.442405E-08  0.341E-04    1.04      49.6  T
     SCC iter.                  ...        0 min,  0.183 sec
     gradient                   ...        0 min,  0.014 sec
 * total energy  :   -70.4539020 Eh     change       -0.4609896E-04 Eh
   gradient norm :     0.0026942 Eh/α   predicted    -0.2930229E-04 ( -36.44%)
   displ. norm   :     0.0969815 α      lambda       -0.5206015E-04
   maximum displ.:     0.0790527 α      in ANC's #2, #9, #5, ...

........................................................................
.............................. CYCLE    7 ..............................
........................................................................
   1    -71.4075903 -0.714076E+02  0.204E-02    1.04       0.0  T
   2    -71.4075907 -0.408880E-06  0.109E-02    1.04       1.5  T
   3    -71.4075900  0.741428E-06  0.569E-03    1.04       3.0  T
   4    -71.4075907 -0.739540E-06  0.259E-03    1.04       6.5  T
   5    -71.4075909 -0.166660E-06  0.150E-03    1.04      11.3  T
   6    -71.4075910 -0.513091E-07  0.583E-04    1.04      29.0  T
   7    -71.4075910 -0.550251E-08  0.254E-04    1.04      66.5  T
     SCC iter.                  ...        0 min,  0.183 sec
     gradient                   ...        0 min,  0.016 sec
 * total energy  :   -70.4539449 Eh     change       -0.4289970E-04 Eh
   gradient norm :     0.0021678 Eh/α   predicted    -0.2627700E-04 ( -38.75%)
   displ. norm   :     0.0921550 α      lambda       -0.4018904E-04
   maximum displ.:     0.0774576 α      in ANC's #2, #9, #5, ...

........................................................................
.............................. CYCLE    8 ..............................
........................................................................
   1    -71.4071820 -0.714072E+02  0.173E-02    1.04       0.0  T
   2    -71.4071822 -0.257174E-06  0.954E-03    1.04       1.8  T
   3    -71.4071812  0.101283E-05  0.604E-03    1.04       2.8  T
   4    -71.4071822 -0.100828E-05  0.251E-03    1.04       6.7  T
   5    -71.4071824 -0.181535E-06  0.130E-03    1.04      13.0  T
   6    -71.4071824 -0.342413E-07  0.472E-04    1.04      35.8  T
   7    -71.4071824 -0.317456E-08  0.201E-04    1.04      84.0  T
     SCC iter.                  ...        0 min,  0.179 sec
     gradient                   ...        0 min,  0.012 sec
 * total energy  :   -70.4539783 Eh     change       -0.3347448E-04 Eh
   gradient norm :     0.0019220 Eh/α   predicted    -0.2026674E-04 ( -39.46%)
   displ. norm   :     0.1093613 α      lambda       -0.2671173E-04
   maximum displ.:     0.0958525 α      in ANC's #2, #5, #9, ...

........................................................................
.............................. CYCLE    9 ..............................
........................................................................
   1    -71.4067516 -0.714068E+02  0.181E-02    1.04       0.0  T
   2    -71.4067518 -0.182146E-06  0.104E-02    1.04       1.6  T
   3    -71.4067497  0.210064E-05  0.821E-03    1.04       2.1  T
   4    -71.4067519 -0.225471E-05  0.235E-03    1.04       7.2  T
   5    -71.4067521 -0.128006E-06  0.129E-03    1.04      13.1  T
   6    -71.4067521 -0.337153E-07  0.474E-04    1.04      35.7  T
   7    -71.4067521 -0.320310E-08  0.215E-04    1.04      78.5  T
     SCC iter.                  ...        0 min,  0.185 sec
     gradient                   ...        0 min,  0.013 sec
 * total energy  :   -70.4540112 Eh     change       -0.3288530E-04 Eh
   gradient norm :     0.0018447 Eh/α   predicted    -0.1342992E-04 ( -59.16%)
   displ. norm   :     0.0742909 α      lambda       -0.1754827E-04
   maximum displ.:     0.0673510 α      in ANC's #2, #5, #9, ...

........................................................................
.............................. CYCLE   10 ..............................
........................................................................
   1    -71.4068169 -0.714068E+02  0.109E-02    1.04       0.0  T
   2    -71.4068169 -0.548085E-07  0.610E-03    1.04       2.8  T
   3    -71.4068162  0.776713E-06  0.505E-03    1.04       3.3  T
   4    -71.4068170 -0.849757E-06  0.118E-03    1.04      14.3  T
   5    -71.4068170 -0.111243E-07  0.763E-04    1.04      22.2  T
   6    -71.4068170 -0.181430E-07  0.223E-04    1.04      75.7  T
     SCC iter.                  ...        0 min,  0.167 sec
     gradient                   ...        0 min,  0.013 sec
 * total energy  :   -70.4540351 Eh     change       -0.2384090E-04 Eh
   gradient norm :     0.0013818 Eh/α   predicted    -0.8800031E-05 ( -63.09%)
   displ. norm   :     0.0762663 α      lambda       -0.1893381E-04
   maximum displ.:     0.0670963 α      in ANC's #2, #5, #9, ...

........................................................................
.............................. CYCLE   11 ..............................
........................................................................
   1    -71.4070655 -0.714071E+02  0.120E-02    1.04       0.0  T
   2    -71.4070657 -0.182912E-06  0.642E-03    1.04       2.6  T
   3    -71.4070655  0.239746E-06  0.357E-03    1.04       4.7  T
   4    -71.4070657 -0.281312E-06  0.155E-03    1.04      10.9  T
   5    -71.4070658 -0.313337E-07  0.864E-04    1.04      19.6  T
   6    -71.4070658 -0.163476E-07  0.375E-04    1.04      45.0  T
     SCC iter.                  ...        0 min,  0.177 sec
     gradient                   ...        0 min,  0.019 sec
 * total energy  :   -70.4540596 Eh     change       -0.2450397E-04 Eh
   gradient norm :     0.0010633 Eh/α   predicted    -0.9492900E-05 ( -61.26%)
   displ. norm   :     0.0847630 α      lambda       -0.1895097E-04
   maximum displ.:     0.0734038 α      in ANC's #2, #5, #9, ...

........................................................................
.............................. CYCLE   12 ..............................
........................................................................
   1    -71.4072508 -0.714073E+02  0.129E-02    1.04       0.0  T
   2    -71.4072511 -0.274881E-06  0.700E-03    1.04       2.4  T
   3    -71.4072509  0.250482E-06  0.371E-03    1.04       4.6  T
   4    -71.4072511 -0.270145E-06  0.188E-03    1.04       9.0  T
   5    -71.4072512 -0.872803E-07  0.988E-04    1.04      17.1  T
   6    -71.4072512 -0.216328E-07  0.441E-04    1.04      38.3  T
     SCC iter.                  ...        0 min,  0.175 sec
     gradient                   ...        0 min,  0.013 sec
 * total energy  :   -70.4540838 Eh     change       -0.2420101E-04 Eh
   gradient norm :     0.0011632 Eh/α   predicted    -0.9507375E-05 ( -60.71%)
   displ. norm   :     0.0755958 α      lambda       -0.1445755E-04
   maximum displ.:     0.0678513 α      in ANC's #2, #9, #5, ...

........................................................................
.............................. CYCLE   13 ..............................
........................................................................
   1    -71.4073461 -0.714073E+02  0.108E-02    1.04       0.0  T
   2    -71.4073463 -0.168266E-06  0.596E-03    1.04       2.8  T
   3    -71.4073459  0.317137E-06  0.373E-03    1.04       4.5  T
   4    -71.4073462 -0.299176E-06  0.189E-03    1.04       9.0  T
   5    -71.4073464 -0.113329E-06  0.749E-04    1.04      22.6  T
   6    -71.4073464 -0.943180E-08  0.337E-04    1.04      50.2  T
     SCC iter.                  ...        0 min,  0.292 sec
     gradient                   ...        0 min,  0.024 sec
 * total energy  :   -70.4541027 Eh     change       -0.1896385E-04 Eh
   gradient norm :     0.0011466 Eh/α   predicted    -0.7250270E-05 ( -61.77%)
   displ. norm   :     0.0611122 α      lambda       -0.1190059E-04
   maximum displ.:     0.0570385 α      in ANC's #2, #9, #5, ...

........................................................................
.............................. CYCLE   14 ..............................
........................................................................
   1    -71.4073959 -0.714074E+02  0.907E-03    1.04       0.0  T
   2    -71.4073960 -0.813485E-07  0.503E-03    1.04       3.4  T
   3    -71.4073957  0.302236E-06  0.352E-03    1.04       4.8  T
   4    -71.4073960 -0.307679E-06  0.143E-03    1.04      11.8  T
   5    -71.4073961 -0.610542E-07  0.565E-04    1.04      29.9  T
   6    -71.4073961 -0.508621E-08  0.277E-04    1.04      60.9  T
     SCC iter.                  ...        0 min,  0.353 sec
     gradient                   ...        0 min,  0.070 sec
 * total energy  :   -70.4541183 Eh     change       -0.1560638E-04 Eh
   gradient norm :     0.0008445 Eh/α   predicted    -0.5963659E-05 ( -61.79%)
   displ. norm   :     0.0491722 α      lambda       -0.9288514E-05
   maximum displ.:     0.0479079 α      in ANC's #2, #9, #5, ...

........................................................................
.............................. CYCLE   15 ..............................
........................................................................
   1    -71.4073739 -0.714074E+02  0.725E-03    1.04       0.0  T
   2    -71.4073739 -0.325645E-07  0.383E-03    1.04       4.4  T
   3    -71.4073738  0.144239E-06  0.247E-03    1.04       6.8  T
   4    -71.4073739 -0.154097E-06  0.891E-04    1.04      19.0  T
   5    -71.4073740 -0.149533E-07  0.464E-04    1.04      36.4  T
     SCC iter.                  ...        0 min,  0.293 sec
     gradient                   ...        0 min,  0.104 sec
 * total energy  :   -70.4541315 Eh     change       -0.1317559E-04 Eh
   gradient norm :     0.0005626 Eh/α   predicted    -0.4651117E-05 ( -64.70%)
   displ. norm   :     0.0466196 α      lambda       -0.8596352E-05
   maximum displ.:     0.0446063 α      in ANC's #2, #5, #1, ...

........................................................................
.............................. CYCLE   16 ..............................
........................................................................
   1    -71.4072999 -0.714073E+02  0.745E-03    1.04       0.0  T
   2    -71.4072999 -0.143054E-07  0.385E-03    1.04       4.4  T
   3    -71.4072998  0.119797E-06  0.210E-03    1.04       8.0  T
   4    -71.4072999 -0.128864E-06  0.754E-04    1.04      22.4  T
   5    -71.4072999 -0.422004E-08  0.487E-04    1.04      34.7  T
     SCC iter.                  ...        0 min,  0.384 sec
     gradient                   ...        0 min,  0.021 sec
 * total energy  :   -70.4541437 Eh     change       -0.1217501E-04 Eh
   gradient norm :     0.0005075 Eh/α   predicted    -0.4304055E-05 ( -64.65%)
   displ. norm   :     0.0482631 α      lambda       -0.8184380E-05
   maximum displ.:     0.0449067 α      in ANC's #2, #5, #1, ...

........................................................................
.............................. CYCLE   17 ..............................
........................................................................
   1    -71.4072630 -0.714073E+02  0.785E-03    1.04       0.0  T
   2    -71.4072630 -0.112864E-07  0.404E-03    1.04       4.2  T
   3    -71.4072629  0.131573E-06  0.210E-03    1.04       8.0  T
   4    -71.4072630 -0.132117E-06  0.857E-04    1.04      19.7  T
   5    -71.4072630 -0.100605E-07  0.483E-04    1.04      35.0  T
     SCC iter.                  ...        0 min,  0.232 sec
     gradient                   ...        0 min,  0.012 sec
 * total energy  :   -70.4541551 Eh     change       -0.1138551E-04 Eh
   gradient norm :     0.0005144 Eh/α   predicted    -0.4098803E-05 ( -64.00%)
   displ. norm   :     0.0479884 α      lambda       -0.7387789E-05
   maximum displ.:     0.0445861 α      in ANC's #2, #5, #1, ...

........................................................................
.............................. CYCLE   18 ..............................
........................................................................
   1    -71.4072326 -0.714072E+02  0.775E-03    1.04       0.0  T
   2    -71.4072327 -0.999245E-08  0.398E-03    1.04       4.2  T
   3    -71.4072325  0.150854E-06  0.225E-03    1.04       7.5  T
   4    -71.4072327 -0.153490E-06  0.848E-04    1.04      19.9  T
   5    -71.4072327 -0.100922E-07  0.461E-04    1.04      36.7  T
     SCC iter.                  ...        0 min,  0.192 sec
     gradient                   ...        0 min,  0.014 sec
 * total energy  :   -70.4541650 Eh     change       -0.9979553E-05 Eh
   gradient norm :     0.0004901 Eh/α   predicted    -0.3699905E-05 ( -62.93%)
   displ. norm   :     0.0420118 α      lambda       -0.5916525E-05
   maximum displ.:     0.0400717 α      in ANC's #2, #5, #1, ...

........................................................................
.............................. CYCLE   19 ..............................
........................................................................
   1    -71.4072201 -0.714072E+02  0.637E-03    1.04       0.0  T
   2    -71.4072201 -0.896908E-08  0.329E-03    1.04       5.1  T
   3    -71.4072200  0.831418E-07  0.176E-03    1.04       9.6  T
   4    -71.4072201 -0.837559E-07  0.713E-04    1.04      23.7  T
   5    -71.4072201 -0.600818E-08  0.416E-04    1.04      40.7  T
     SCC iter.                  ...        0 min,  0.178 sec
     gradient                   ...        0 min,  0.013 sec
 * total energy  :   -70.4541732 Eh     change       -0.8181081E-05 Eh
   gradient norm :     0.0003659 Eh/α   predicted    -0.2963869E-05 ( -63.77%)
   displ. norm   :     0.0348496 α      lambda       -0.4546714E-05
   maximum displ.:     0.0343791 α      in ANC's #2, #5, #1, ...

........................................................................
.............................. CYCLE   20 ..............................
........................................................................
   1    -71.4072522 -0.714073E+02  0.469E-03    1.04       0.0  T
   2    -71.4072522 -0.694223E-08  0.248E-03    1.04       6.8  T
   3    -71.4072521  0.528234E-07  0.141E-03    1.04      12.0  T
   4    -71.4072522 -0.553617E-07  0.540E-04    1.04      31.3  T
   5    -71.4072522 -0.310679E-08  0.320E-04    1.04      52.8  T
     SCC iter.                  ...        0 min,  0.156 sec
     gradient                   ...        0 min,  0.011 sec
 * total energy  :   -70.4541798 Eh     change       -0.6556830E-05 Eh
   gradient norm :     0.0003076 Eh/α   predicted    -0.2277458E-05 ( -65.27%)
   displ. norm   :     0.0312907 α      lambda       -0.4073402E-05
   maximum displ.:     0.0308699 α      in ANC's #2, #1, #5, ...
 * RMSD in coord.:     0.2370166 α      energy gain  -0.1116774E-01 Eh

generating ANC from model Hessian ...
Using Lindh-Hessian (1995)
 Shifting diagonal of input Hessian by    9.7803709727455664E-003
 Lowest  eigenvalues of input Hessian
    0.000000    0.000000    0.000000    0.000000    0.000000    0.000000
    0.010000    0.010374    0.010553    0.011405    0.012206    0.012769
    0.013611    0.014579    0.015074    0.018515    0.019735    0.021202
 Highest eigenvalues
    2.006286    2.029143    2.077159    2.108690    2.135743    2.218860


........................................................................
.............................. CYCLE   21 ..............................
........................................................................
   1    -71.4072725 -0.714073E+02  0.396E-03    1.04       0.0  T
   2    -71.4072725 -0.901623E-08  0.213E-03    1.04       7.9  T
   3    -71.4072725  0.218123E-07  0.968E-04    1.04      17.5  T
   4    -71.4072725 -0.252741E-07  0.373E-04    1.04      45.3  T
     SCC iter.                  ...        0 min,  0.143 sec
     gradient                   ...        0 min,  0.012 sec
 * total energy  :   -70.4541857 Eh     change       -0.5921406E-05 Eh
   gradient norm :     0.0002724 Eh/α   predicted     0.0000000E+00 (-100.00%)
   displ. norm   :     0.0271315 α      lambda       -0.1008777E-06
   maximum displ.:     0.0264290 α      in ANC's #2, #5, #9, ...

........................................................................
.............................. CYCLE   22 ..............................
........................................................................
   1    -71.4072516 -0.714073E+02  0.368E-03    1.04       0.0  T
   2    -71.4072516 -0.982685E-08  0.202E-03    1.04       8.4  T
   3    -71.4072515  0.362901E-07  0.115E-03    1.04      14.7  T
   4    -71.4072516 -0.353450E-07  0.509E-04    1.04      33.2  T
   5    -71.4072516 -0.631346E-08  0.229E-04    1.04      73.7  T
     SCC iter.                  ...        0 min,  0.200 sec
     gradient                   ...        0 min,  0.014 sec
 * total energy  :   -70.4541908 Eh     change       -0.5082609E-05 Eh
   gradient norm :     0.0002168 Eh/α   predicted    -0.1755818E-05 ( -65.45%)
   displ. norm   :     0.0323406 α      lambda       -0.3942441E-05
   maximum displ.:     0.0298550 α      in ANC's #2, #5, #9, ...

........................................................................
.............................. CYCLE   23 ..............................
........................................................................
   1    -71.4072480 -0.714072E+02  0.429E-03    1.04       0.0  T
   2    -71.4072480 -0.183244E-07  0.239E-03    1.04       7.1  T
   3    -71.4072480  0.322967E-07  0.117E-03    1.04      14.4  T
   4    -71.4072480 -0.366736E-07  0.467E-04    1.04      36.2  T
   5    -71.4072480 -0.260867E-08  0.282E-04    1.04      59.9  T
     SCC iter.                  ...        0 min,  0.179 sec
     gradient                   ...        0 min,  0.013 sec
 * total energy  :   -70.4541964 Eh     change       -0.5658550E-05 Eh
   gradient norm :     0.0002054 Eh/α   predicted    -0.1972354E-05 ( -65.14%)
   displ. norm   :     0.0360486 α      lambda       -0.4021874E-05
   maximum displ.:     0.0325422 α      in ANC's #2, #5, #9, ...

........................................................................
.............................. CYCLE   24 ..............................
........................................................................
   1    -71.4072909 -0.714073E+02  0.471E-03    1.04       0.0  T
   2    -71.4072909 -0.202253E-07  0.268E-03    1.04       6.3  T
   3    -71.4072908  0.661665E-07  0.152E-03    1.04      11.1  T
   4    -71.4072909 -0.714775E-07  0.557E-04    1.04      30.3  T
   5    -71.4072909 -0.398322E-08  0.344E-04    1.04      49.1  T
     SCC iter.                  ...        0 min,  0.172 sec
     gradient                   ...        0 min,  0.014 sec
 * total energy  :   -70.4542022 Eh     change       -0.5744474E-05 Eh
   gradient norm :     0.0002107 Eh/α   predicted    -0.2023896E-05 ( -64.77%)
   displ. norm   :     0.0354535 α      lambda       -0.3695873E-05
   maximum displ.:     0.0324045 α      in ANC's #2, #5, #9, ...

........................................................................
.............................. CYCLE   25 ..............................
........................................................................
   1    -71.4073081 -0.714073E+02  0.465E-03    1.04       0.0  T
   2    -71.4073081 -0.175226E-07  0.260E-03    1.04       6.5  T
   3    -71.4073081  0.362179E-07  0.118E-03    1.04      14.4  T
   4    -71.4073081 -0.418985E-07  0.420E-04    1.04      40.2  T
   5    -71.4073081 -0.178629E-08  0.234E-04    1.04      72.1  T
     SCC iter.                  ...        0 min,  0.159 sec
     gradient                   ...        0 min,  0.013 sec
 * total energy  :   -70.4542074 Eh     change       -0.5236764E-05 Eh
   gradient norm :     0.0001955 Eh/α   predicted    -0.1849357E-05 ( -64.69%)
   displ. norm   :     0.0316588 α      lambda       -0.3126549E-05
   maximum displ.:     0.0296832 α      in ANC's #2, #5, #9, ...

........................................................................
.............................. CYCLE   26 ..............................
........................................................................
   1    -71.4073022 -0.714073E+02  0.412E-03    1.04       0.0  T
   2    -71.4073022 -0.118506E-07  0.228E-03    1.04       7.4  T
   3    -71.4073022  0.163763E-07  0.844E-04    1.04      20.0  T
   4    -71.4073022 -0.194404E-07  0.350E-04    1.04      48.3  T
     SCC iter.                  ...        0 min,  0.170 sec
     gradient                   ...        0 min,  0.014 sec
 * total energy  :   -70.4542119 Eh     change       -0.4463234E-05 Eh
   gradient norm :     0.0001755 Eh/α   predicted    -0.1564409E-05 ( -64.95%)
   displ. norm   :     0.0268651 α      lambda       -0.2582406E-05
   maximum displ.:     0.0259782 α      in ANC's #2, #5, #11, ...

   *** GEOMETRY OPTIMIZATION CONVERGED AFTER 26 ITERATIONS ***

------------------------------------------------------------------------
 total energy gain   :        -0.0111999 Eh       -7.0280 kcal/mol
 total RMSD          :         0.2591345 a0        0.1371 Å
 total power (kW/mol):        -1.1309694 (step)   -4.7124 (real)
------------------------------------------------------------------------

 ANCopt (total)                0 d,  0 h,  0 min,  6.240 sec
 optimizer setup                ...        0 min,  0.000 sec (  0.001%)
 model hessian                  ...        0 min,  0.007 sec (  0.111%)
 ANC generation                 ...        0 min,  0.006 sec (  0.093%)
 coordinate transformation      ...        0 min,  0.001 sec (  0.017%)
 single point calculation       ...        0 min,  6.190 sec ( 99.197%)
 optimization log               ...        0 min,  0.004 sec (  0.062%)
 hessian update                 ...        0 min,  0.026 sec (  0.421%)
 rational function              ...        0 min,  0.003 sec (  0.046%)

================
 final structure:
================
35
 xtb: 6.5.1 (fef0646)
C            7.88854445247694        0.25389576579874       -0.00067798839826
N            7.57668974480953        1.50145602648275       -0.00064980610566
C            6.24605583365861        1.68020610736793       -0.00052931053423
C            5.49289144318689        0.52466448921979       -0.00042320918909
S            6.55190814165339       -0.85465625056199       -0.00038766873812
C            4.08579190969506        0.37118536179586       -0.00025384890670
S            2.98218038441814        1.71210540766144       -0.00019277573946
C            1.58076307655307        0.69235778295947        0.00006198151614
C            0.25100870337708        1.16039639537161        0.00024272174093
C           -0.23729693476772        2.45515508238880        0.00018100100811
N           -1.56267526391675        2.57880073679758        0.00050164349779
C           -2.16506986951751        1.42324330299027        0.00074805482845
S           -1.07650440913807        0.03472171332389        0.00084646384014
C           -3.56403196919228        1.22998195338119        0.00117439060474
S           -4.67667297582864        2.57308174891318        0.00114234406027
C           -6.03913273030215        1.52881651267845        0.00182061537234
C           -5.68233361125324        0.20651306597325        0.00198485532967
C           -6.40353304165840       -1.02937651194474        0.00231626949251
C           -5.61785451616640       -2.12269165919716        0.00252062488183
Se          -3.76414901856601       -1.75663565321470        0.00167937509850
C           -4.26277050878630        0.04181223413919        0.00161700735737
C            1.96266174679747       -0.64997042757985        0.00012075191988
N            1.11864026129538       -1.69598903110904        0.00031379430016
C            1.67639155392393       -2.87642080736561        0.00030939900195
C            3.08334615153453       -3.05828012952872        0.00011415402056
N            3.92835116280866       -2.06399610757514       -0.00007403775828
C            3.38330845728266       -0.83176194163618       -0.00007493619731
H            8.89841607749117       -0.10438688357640       -0.00071620181994
H            5.84017321757778        2.67570606587782       -0.00051201726334
H            0.37957817404400        3.33631915517418       -0.00002899483543
H           -7.02593763462182        1.94727134921971        0.00191984481913
H           -7.47929426818123       -1.06677154635982        0.00261768798805
H           -5.95551872301945       -3.14450685615099        0.00291519218197
H            1.00783067117521       -3.72570637214208        0.00046981216980
H            3.50997524795623       -4.05162036607375        0.00012125775529

 Bond Distances (Angstroems)
 ---------------------------
C1-N2=1.2859         C1-S5=1.7365         C1-H28=1.0715        N2-C1=1.2859         N2-C3=1.3426         C3-N2=1.3426         
C3-C4=1.3793         C3-H29=1.0751        C4-C3=1.3793         C4-S5=1.7390         C4-C6=1.4154         S5-C1=1.7365         
S5-C4=1.7390         C6-C4=1.4154         C6-S7=1.7367         C6-C27=1.3930        S7-C6=1.7367         S7-C8=1.7332         
C8-S7=1.7332         C8-C9=1.4097         C8-C22=1.3956        C9-C8=1.4097         C9-C10=1.3838        C9-S13=1.7405        
C10-C9=1.3838        C10-N11=1.3311       C10-H30=1.0756       N11-C10=1.3311       N11-C12=1.3031       C12-N11=1.3031       
C12-S13=1.7644       C12-C14=1.4122       S13-C9=1.7405        S13-C12=1.7644       C14-C12=1.4122       C14-S15=1.7441       
C14-C21=1.3784       S15-C14=1.7441       S15-C16=1.7166       C16-S15=1.7166       C16-C17=1.3696       C16-H31=1.0719       
C17-C16=1.3696       C17-C18=1.4309       C17-C21=1.4291       C18-C17=1.4309       C18-C19=1.3463       C18-H32=1.0764       
C19-C18=1.3463       C19-Se20=1.8895      C19-H33=1.0762       Se20-C19=1.8895      Se20-C21=1.8663      C21-C14=1.3784       
C21-C17=1.4291       C21-Se20=1.8663      C22-C8=1.3956        C22-N23=1.3441       C22-C27=1.4322       N23-C22=1.3441       
N23-C24=1.3056       C24-N23=1.3056       C24-C25=1.4187       C24-H34=1.0809       C25-C24=1.4187       C25-N26=1.3049       
C25-H35=1.0811       N26-C25=1.3049       N26-C27=1.3474       C27-C6=1.3930        C27-C22=1.4322       C27-N26=1.3474       
H28-C1=1.0715        H29-C3=1.0751        H30-C10=1.0756       H31-C16=1.0719       H32-C18=1.0764       H33-C19=1.0762       
H34-C24=1.0809       H35-C25=1.0811       
 C  H  Rav=1.0761 sigma=0.0033  Rmin=1.0715  Rmax=1.0811     8
 C  C  Rav=1.3996 sigma=0.0249  Rmin=1.3463  Rmax=1.4322    14
 N  C  Rav=1.3206 sigma=0.0219  Rmin=1.2859  Rmax=1.3474     8
 S  C  Rav=1.7389 sigma=0.0123  Rmin=1.7166  Rmax=1.7644     8
 Se C  Rav=1.8779 sigma=0.0116  Rmin=1.8663  Rmax=1.8895     2

 selected bond angles (degree)
 --------------------
S5-C1-N2=115.64                H28-C1-N2=123.57               H28-C1-S5=120.80               C3-N2-C1=111.69                
C4-C3-N2=115.44                H29-C3-N2=119.83               H29-C3-C4=124.72               S5-C4-C3=109.39                
C6-C4-C3=129.32                C6-C4-S5=121.29                C4-S5-C1= 87.85                S7-C6-C4=123.23                
C27-C6-C4=126.51               C27-C6-S7=110.26               C8-S7-C6= 93.41                C9-C8-S7=124.57                
C22-C8-S7=110.16               C22-C8-C9=125.27               C10-C9-C8=130.05               S13-C9-C8=120.31               
S13-C9-C10=109.63              N11-C10-C9=115.99              H30-C10-C9=124.34              H30-C10-N11=119.66             

 selected dihedral angles (degree)
 ---------------------------------
C3-N2-C1-S5=  0.00            C3-N2-C1-H28=180.00           C4-C3-N2-C1=  0.00            H29-C3-N2-C1=180.00           
S5-C4-C3-N2=  0.00            S5-C4-C3-H29=180.00           C6-C4-C3-N2=180.00            C6-C4-C3-H29=  0.00           
C4-S5-C1-N2=  0.00            C4-S5-C1-H28=180.00           C1-S5-C4-C3=  0.00            C1-S5-C4-C6=180.00            
S7-C6-C4-C3=  0.00            S7-C6-C4-S5=180.00            C27-C6-C4-C3=180.00           C27-C6-C4-S5=  0.00           
C8-S7-C6-C4=180.00            C8-S7-C6-C27=  0.00           C9-C8-S7-C6=180.00            C22-C8-S7-C6=  0.00           
C10-C9-C8-S7=  0.00           C10-C9-C8-C22=180.00          S13-C9-C8-S7=180.01           S13-C9-C8-C22=  0.00          
N11-C10-C9-C8=180.00          N11-C10-C9-S13=  0.00         H30-C10-C9-C8=  0.00          H30-C10-C9-S13=179.99         
           -------------------------------------------------
          |                Final Singlepoint                |
           -------------------------------------------------

          ...................................................
          :                      SETUP                      :
          :.................................................:
          :  # basis functions                 146          :
          :  # atomic orbitals                 141          :
          :  # shells                           67          :
          :  # electrons                       130          :
          :  max. iterations                  4000          :
          :  Hamiltonian                  GFN2-xTB          :
          :  restarted?                      false          :
          :  GBSA solvation                  false          :
          :  PC potential                    false          :
          :  electronic temp.          300.0000000     K    :
          :  accuracy                    1.0000000          :
          :  -> integral cutoff          0.2500000E+02      :
          :  -> integral neglect         0.1000000E-07      :
          :  -> SCF convergence          0.1000000E-05 Eh   :
          :  -> wf. convergence          0.1000000E-03 e    :
          :  Broyden damping             0.4000000          :
          ...................................................

 iter      E             dE          RMSdq      gap      omega  full diag
   1    -71.4073022 -0.714073E+02  0.169E-04    1.04       0.0  T
   2    -71.4073022 -0.315765E-10  0.133E-04    1.04     127.2  T
   3    -71.4073022 -0.501387E-09  0.609E-05    1.04     277.4  T

   *** convergence criteria satisfied after 3 iterations ***

         #    Occupation            Energy/Eh            Energy/eV
      -------------------------------------------------------------
         1        2.0000           -0.7613901             -20.7185
       ...           ...                  ...                  ...
        59        2.0000           -0.4072534             -11.0819
        60        2.0000           -0.4014417             -10.9238
        61        2.0000           -0.3998226             -10.8797
        62        2.0000           -0.3974070             -10.8140
        63        2.0000           -0.3829105             -10.4195
        64        2.0000           -0.3690770             -10.0431
        65        2.0000           -0.3641303              -9.9085 (HOMO)
        66                         -0.3257578              -8.8643 (LUMO)
        67                         -0.2926008              -7.9621
        68                         -0.2720133              -7.4019
        69                         -0.2607262              -7.0947
        70                         -0.2422452              -6.5918
       ...                                ...                  ...
       141                          0.8401033              22.8604
      -------------------------------------------------------------
                  HL-Gap            0.0383724 Eh            1.0442 eV
             Fermi-level           -0.3449415 Eh           -9.3863 eV

 SCC (total)                   0 d,  0 h,  0 min,  0.212 sec
 SCC setup                      ...        0 min,  0.000 sec (  0.066%)
 Dispersion                     ...        0 min,  0.000 sec (  0.112%)
 classical contributions        ...        0 min,  0.000 sec (  0.034%)
 integral evaluation            ...        0 min,  0.009 sec (  4.386%)
 iterations                     ...        0 min,  0.180 sec ( 85.234%)
 molecular gradient             ...        0 min,  0.019 sec (  9.034%)
 printout                       ...        0 min,  0.002 sec (  1.114%)

         :::::::::::::::::::::::::::::::::::::::::::::::::::::
         ::                     SUMMARY                     ::
         :::::::::::::::::::::::::::::::::::::::::::::::::::::
         :: total energy             -70.454211895751 Eh    ::
         :: gradient norm              0.000175457367 Eh/a0 ::
         :: HOMO-LUMO gap              1.044167127509 eV    ::
         ::.................................................::
         :: SCC energy               -71.407302211694 Eh    ::
         :: -> isotropic ES            0.027441564647 Eh    ::
         :: -> anisotropic ES          0.006811271322 Eh    ::
         :: -> anisotropic XC          0.041742096739 Eh    ::
         :: -> dispersion             -0.058069313989 Eh    ::
         :: repulsion energy           0.953728952104 Eh    ::
         :: add. restraining           0.000000000000 Eh    ::
         :: total charge               0.000000000019 e     ::
         :::::::::::::::::::::::::::::::::::::::::::::::::::::

           -------------------------------------------------
          |                Property Printout                |
           -------------------------------------------------

    * Orbital Energies and Occupations

         #    Occupation            Energy/Eh            Energy/eV
      -------------------------------------------------------------
         1        2.0000           -0.7613901             -20.7185
       ...           ...                  ...                  ...
        53        2.0000           -0.4475200             -12.1776
        54        2.0000           -0.4366313             -11.8813
        55        2.0000           -0.4342708             -11.8171
        56        2.0000           -0.4288219             -11.6688
        57        2.0000           -0.4255682             -11.5803
        58        2.0000           -0.4150262             -11.2934
        59        2.0000           -0.4072534             -11.0819
        60        2.0000           -0.4014417             -10.9238
        61        2.0000           -0.3998226             -10.8797
        62        2.0000           -0.3974070             -10.8140
        63        2.0000           -0.3829105             -10.4195
        64        2.0000           -0.3690770             -10.0431
        65        2.0000           -0.3641303              -9.9085 (HOMO)
        66                         -0.3257578              -8.8643 (LUMO)
        67                         -0.2926008              -7.9621
        68                         -0.2720133              -7.4019
        69                         -0.2607262              -7.0947
        70                         -0.2422452              -6.5918
        71                         -0.2400063              -6.5309
        72                         -0.2302746              -6.2661
        73                         -0.2279852              -6.2038
        74                         -0.2168088              -5.8997
        75                         -0.2081062              -5.6629
        76                         -0.2047367              -5.5712
       ...                                ...                  ...
       141                          0.8401033              22.8604
      -------------------------------------------------------------
                  HL-Gap            0.0383724 Eh            1.0442 eV
             Fermi-level           -0.3449415 Eh           -9.3863 eV

     #   Z          covCN         q      C6AA      α(0)
     1   6 C        2.998     0.067    26.482     8.442
     2   7 N        1.949    -0.207    26.304     7.605
     3   6 C        3.180     0.026    27.002     8.483
     4   6 C        3.006     0.015    27.672     8.629
     5  16 S        2.281     0.001   141.016    19.987
     6   6 C        3.009     0.000    28.005     8.681
     7  16 S        2.333     0.010   140.661    19.961
     8   6 C        3.014     0.003    27.929     8.669
     9   6 C        3.001     0.015    27.659     8.627
    10   6 C        3.155     0.036    26.894     8.480
    11   7 N        1.937    -0.229    26.832     7.681
    12   6 C        3.070     0.105    25.615     8.299
    13  16 S        2.367    -0.023   141.999    20.056
    14   6 C        3.020     0.001    27.978     8.676
    15  16 S        2.324     0.040   139.435    19.874
    16   6 C        2.932    -0.030    28.743     8.792
    17   6 C        3.290    -0.001    26.445     8.255
    18   6 C        3.025    -0.038    28.912     8.820
    19   6 C        2.922    -0.023    28.587     8.768
    20  34 Se       2.259    -0.025   236.571    26.801
    21   6 C        3.179    -0.000    27.609     8.578
    22   6 C        3.169     0.066    26.162     8.357
    23   7 N        1.847    -0.205    26.296     7.600
    24   6 C        2.918     0.057    26.732     8.478
    25   6 C        2.917     0.058    26.697     8.473
    26   7 N        1.838    -0.210    26.396     7.614
    27   6 C        3.162     0.066    26.206     8.368
    28   1 H        0.926     0.060     2.201     2.320
    29   1 H        0.926     0.051     2.303     2.373
    30   1 H        0.926     0.052     2.296     2.369
    31   1 H        0.926     0.061     2.183     2.310
    32   1 H        0.926     0.048     2.340     2.392
    33   1 H        0.926     0.057     2.232     2.336
    34   1 H        0.926     0.047     2.361     2.403
    35   1 H        0.926     0.047     2.362     2.403

 Mol. C6AA /au·bohr⁶  :      35833.635710
 Mol. C8AA /au·bohr⁸  :    1220785.056957
 Mol. α(0) /au        :        309.961791


Wiberg/Mayer (AO) data.
largest (>0.10) Wiberg bond orders for each atom

 ---------------------------------------------------------------------------
     #   Z sym  total        # sym  WBO       # sym  WBO       # sym  WBO
 ---------------------------------------------------------------------------
     1   6 C    3.919 --     2 N    1.619     5 S    1.187    28 H    0.964
     2   7 N    3.130 --     1 C    1.619     3 C    1.304     5 S    0.156
     3   6 C    3.936 --     4 C    1.464     2 N    1.304    29 H    0.958
     4   6 C    3.955 --     3 C    1.464     6 C    1.193     5 S    1.139
     5  16 S    2.673 --     1 C    1.187     4 C    1.139     2 N    0.156
     6   6 C    3.913 --    27 C    1.325     4 C    1.193     7 S    1.149
     7  16 S    2.649 --     8 C    1.155     6 C    1.149
     8   6 C    3.932 --    22 C    1.308     9 C    1.214     7 S    1.155
     9   6 C    3.938 --    10 C    1.422     8 C    1.214    13 S    1.115
    10   6 C    3.941 --     9 C    1.422    11 N    1.355    30 H    0.958
    11   7 N    3.121 --    12 C    1.480    10 C    1.355    13 S    0.131
    12   6 C    3.930 --    11 N    1.480    14 C    1.195    13 S    1.092
    13  16 S    2.658 --     9 C    1.115    12 C    1.092    11 N    0.131
    14   6 C    3.947 --    21 C    1.419    12 C    1.195    15 S    1.112
    15  16 S    2.661 --    16 C    1.232    14 C    1.112
    16   6 C    3.914 --    17 C    1.484    15 S    1.232    31 H    0.966
    17   6 C    3.983 --    16 C    1.484    21 C    1.191    18 C    1.154
    18   6 C    3.985 --    19 C    1.721    17 C    1.154    32 H    0.959
                            20 Se   0.108
    19   6 C    3.966 --    18 C    1.721    20 Se   1.139    33 H    0.956
    20  34 Se   2.656 --    19 C    1.139    21 C    1.125    18 C    0.108
    21   6 C    3.948 --    14 C    1.419    17 C    1.191    20 Se   1.125
    22   6 C    3.972 --     8 C    1.308    23 N    1.285    27 C    1.151
    23   7 N    3.100 --    24 C    1.559    22 C    1.285
    24   6 C    3.951 --    23 N    1.559    25 C    1.255    34 H    0.962
    25   6 C    3.960 --    26 N    1.568    24 C    1.255    35 H    0.962
    26   7 N    3.080 --    25 C    1.568    27 C    1.273
    27   6 C    3.980 --     6 C    1.325    26 N    1.273    22 C    1.151
    28   1 H    0.996 --     1 C    0.964
    29   1 H    0.997 --     3 C    0.958
    30   1 H    0.996 --    10 C    0.958
    31   1 H    0.996 --    16 C    0.966
    32   1 H    0.997 --    18 C    0.959
    33   1 H    0.996 --    19 C    0.956
    34   1 H    0.996 --    24 C    0.962
    35   1 H    0.996 --    25 C    0.962
 ---------------------------------------------------------------------------

Topologies differ in total number of bonds
Writing topology from bond orders to xtbtopo.mol

molecular dipole:
                 x           y           z       tot (Debye)
 q only:       -1.192      -0.368       0.000
   full:       -1.265      -0.986       0.000       4.077
molecular quadrupole (traceless):
                xx          xy          yy          xz          yz          zz
 q only:       12.094      -3.122      -2.382      -0.008      -0.001      -9.712
  q+dip:        6.841      -4.081      -0.751      -0.007      -0.002      -6.090
   full:        4.728      -4.038      -3.669      -0.006      -0.001      -1.059

           -------------------------------------------------
          |                Geometry Summary                 |
           -------------------------------------------------

      molecular mass/u    :      487.5021232
   center of mass at/Å    :       -0.0035302      -0.0313094       0.0006585
  moments of inertia/u·Å² :        0.1357472E+04   0.9128082E+04   0.1048555E+05
rotational constants/cm⁻¹ :        0.1241841E-01   0.1846788E-02   0.1607701E-02

 * 40 selected distances

     #   Z          #   Z                                           value/Å
     1   6 C        2   7 N                                       1.2859472
     2   7 N        3   6 C                                       1.3425865
     3   6 C        4   6 C                                       1.3793235
     1   6 C        5  16 S                                       1.7365151
     4   6 C        5  16 S                                       1.7389775
     4   6 C        6   6 C                                       1.4154453
     6   6 C        7  16 S                                       1.7366708
     7  16 S        8   6 C                                       1.7331637
     8   6 C        9   6 C                                       1.4097189
     9   6 C       10   6 C                                       1.3837785
    10   6 C       11   7 N                                       1.3311335
    11   7 N       12   6 C                                       1.3031472
     9   6 C       13  16 S                                       1.7405274
    12   6 C       13  16 S                                       1.7643604
    12   6 C       14   6 C                                       1.4122484
    14   6 C       15  16 S                                       1.7441008
    15  16 S       16   6 C                                       1.7166209
    16   6 C       17   6 C                                       1.3695957
    17   6 C       18   6 C                                       1.4309270
    18   6 C       19   6 C                                       1.3463392
    19   6 C       20  34 Se                                      1.8895032 (max)
    14   6 C       21   6 C                                       1.3783988
    17   6 C       21   6 C                                       1.4290858
    20  34 Se      21   6 C                                       1.8662901
     8   6 C       22   6 C                                       1.3955974
    22   6 C       23   7 N                                       1.3440713
    23   7 N       24   6 C                                       1.3055673
    24   6 C       25   6 C                                       1.4186594
    25   6 C       26   7 N                                       1.3048504
     6   6 C       27   6 C                                       1.3930419
    22   6 C       27   6 C                                       1.4322310
    26   7 N       27   6 C                                       1.3473949
     1   6 C       28   1 H                                       1.0715444 (min)
     3   6 C       29   1 H                                       1.0750633
    10   6 C       30   1 H                                       1.0756325
    16   6 C       31   1 H                                       1.0718622
    18   6 C       32   1 H                                       1.0764111
    19   6 C       33   1 H                                       1.0761616
    24   6 C       34   1 H                                       1.0808607
    25   6 C       35   1 H                                       1.0810816

 * 5 distinct bonds (by element types)

   Z      Z             #   av. dist./Å        max./Å        min./Å
   1 H    6 C           8     1.0760772     1.0810816     1.0715444
   6 C    6 C          14     1.3995993     1.4322310     1.3463392
   6 C    7 N           8     1.3205873     1.3473949     1.2859472
   6 C   16 S           8     1.7388671     1.7643604     1.7166209
   6 C   34 Se          2     1.8778967     1.8895032     1.8662901


optimized geometry written to: xtbopt.xyz


           -------------------------------------------------
          | TOTAL ENERGY              -70.454211895751 Eh   |
          | GRADIENT NORM               0.000175457367 Eh/α |
          | HOMO-LUMO GAP               1.044167127509 eV   |
           -------------------------------------------------

------------------------------------------------------------------------
 * finished run on 2024/06/14 at 02:57:51.657     
------------------------------------------------------------------------
 total:
 * wall-time:     0 d,  0 h,  0 min,  6.805 sec
 *  cpu-time:     0 d,  0 h,  0 min, 32.659 sec
 * ratio c/w:     4.799 speedup
 SCF:
 * wall-time:     0 d,  0 h,  0 min,  0.324 sec
 *  cpu-time:     0 d,  0 h,  0 min,  1.880 sec
 * ratio c/w:     5.805 speedup
 ANC optimizer:
 * wall-time:     0 d,  0 h,  0 min,  6.453 sec
 *  cpu-time:     0 d,  0 h,  0 min, 30.594 sec
 * ratio c/w:     4.741 speedup

