35
 energy: -70.443012046794 gnorm: 0.082094350587 xtb: 6.5.1 (fef0646)
C            7.93260498860000        0.06929086030000        0.00748801160000
N            7.66707819180000        1.33518891420000        0.00565155730000
C            6.32418605680000        1.57848779340000        0.00257196970000
C            5.51335556840000        0.47194346660000        0.00167472800000
S            6.51580036220000       -0.93264660780000        0.00489914480000
C            4.09037297320000        0.41166143460000       -0.00123979500000
S            3.01303190930000        1.77140513690000       -0.00254646590000
C            1.58713864870000        0.78295358910000       -0.00410914070000
C            0.24421505540000        1.24229341400000       -0.00459518030000
C           -0.23364163020000        2.53283244140000       -0.00451962690000
N           -1.58185134010000        2.67834094560000       -0.00340832820000
C           -2.20953306220000        1.52359554460000       -0.00290748470000
S           -1.10010703110000        0.16389708450000       -0.00430574700000
C           -3.62938253230000        1.34657987760000       -0.00030679960000
S           -4.86778231080000        2.58765950300000        0.00374254980000
C           -6.17040195980000        1.44345128050000        0.00379898530000
C           -5.67339867510000        0.17178964110000        0.00236824020000
C           -6.31760929490000       -1.15827627670000        0.00715612020000
C           -5.47898032230000       -2.19351141850000        0.00606257320000
Se          -3.65351623700000       -1.66307879070000       -0.00042332580000
C           -4.24665786690000        0.12952179450000        0.00044664300000
C            1.94198367800000       -0.56771372740000       -0.00375800900000
N            1.05523413180000       -1.59668601910000       -0.00372268940000
C            1.63305987430000       -2.75889207440000       -0.00327643310000
C            3.01855502960000       -2.96464330150000       -0.00307788190000
N            3.90959821310000       -2.02112792490000       -0.00276000910000
C            3.36102225830000       -0.77775894230000       -0.00276321430000
H            8.93689239340000       -0.31333284550000        0.01030760250000
H            5.93886926830000        2.58856965370000       -0.00163604110000
H            0.41841276160000        3.39466895520000       -0.00573221590000
H           -7.21115944310000        1.69982736230000        0.00768634280000
H           -7.38958726840000       -1.26466948730000        0.01062617180000
H           -5.77959274470000       -3.22374561910000        0.01025541040000
H            0.97735574080000       -3.61674962550000       -0.00487514330000
H            3.39616555210000       -3.97620631890000       -0.00355407210000
35
 energy: -70.451156354575 gnorm: 0.034522766646 xtb: 6.5.1 (fef0646)
C            7.89374925346639        0.08547530790763        0.00731563886407
N            7.64400554923950        1.35031540706193        0.00542582836266
C            6.31772731103167        1.59371944488743        0.00189124280667
C            5.50629904019818        0.48063122460168        0.00124202322791
S            6.49443038065753       -0.94344610028998        0.00517007627588
C            4.08455927503208        0.41034392250698       -0.00130980913653
S            3.00371476343208        1.76955665701826       -0.00253308553887
C            1.57633941160756        0.78058362932364       -0.00400872377435
C            0.23341707863624        1.24399882170465       -0.00451333553157
C           -0.25100644352518        2.53842611543237       -0.00446638741119
N           -1.58488330621988        2.67385534827278       -0.00339714678969
C           -2.19805252811479        1.51709885776356       -0.00269041903421
S           -1.10236449526085        0.14007939769319       -0.00384598941672
C           -3.61051524679676        1.31326841691240       -0.00049552278553
S           -4.82288715548037        2.57917482974565        0.00212660546422
C           -6.12727612461330        1.44398403785539        0.00498314904953
C           -5.66544351175595        0.15824348734504        0.00363235086825
C           -6.31456121887928       -1.13554446395726        0.00673416632605
C           -5.46431799722500       -2.17130761462814        0.00617492087611
Se          -3.62634745448329       -1.69018915846058        0.00011447407280
C           -4.24021044632002        0.08824067142705        0.00035556418029
C            1.93749502966515       -0.56768591842656       -0.00370525152884
N            1.06199226099991       -1.59837029397800       -0.00423531544029
C            1.62167517163442       -2.77577915685504       -0.00392384649062
C            3.01907805121124       -2.98205345353874       -0.00322669749469
N            3.89545990525974       -2.01765045638977       -0.00250522645025
C            3.35458118877630       -0.77640014627693       -0.00246152049357
H            8.89251254361835       -0.30604527655802        0.01019074414055
H            5.94917151689052        2.60459879583611       -0.00082249472022
H            0.38476250209331        3.40803510480713       -0.00532378038770
H           -7.15804983233678        1.74239514870103        0.00741000103391
H           -7.38686968775772       -1.23602124605403        0.01017567480056
H           -5.75209967181862       -3.20774715085654        0.00944518603976
H            0.95611056508532       -3.62812620759991       -0.00435138074677
H            3.40953525885228       -3.99073826943443       -0.00335326591761
35
 energy: -70.453409954481 gnorm: 0.011110093038 xtb: 6.5.1 (fef0646)
C            7.86591606165976        0.10068994927343        0.00724817150222
N            7.62178507248803        1.36361663594624        0.00501270014587
C            6.30425918276381        1.60967802966935        0.00169124689966
C            5.49178196983943        0.49404947786488        0.00114978896501
S            6.47568507713964       -0.93962942577945        0.00507379877333
C            4.07504574862266        0.40906425823304       -0.00135571084605
S            2.99507974479451        1.77016447431415       -0.00254266796421
C            1.56983051643854        0.77783788670345       -0.00399409286298
C            0.23463479311745        1.24847316799323       -0.00438424974964
C           -0.25886688025594        2.54268831031677       -0.00433784099757
N           -1.58386021599370        2.66606074470935       -0.00349983048011
C           -2.18490647409591        1.50892289776049       -0.00287936757703
S           -1.09229013764707        0.12424247184824       -0.00348310697871
C           -3.58537871834598        1.28421215738283       -0.00080188304152
S           -4.77286762516796        2.56836283386307        0.00179167836338
C           -6.08037993491347        1.44721210083711        0.00468228982940
C           -5.65071913464838        0.14688254241576        0.00414004791680
C           -6.30843942759295       -1.12300009650905        0.00735123921023
C           -5.46577837499935       -2.17205954480369        0.00628225420377
Se          -3.63120773045147       -1.71113245131928        0.00106915464798
C           -4.22622832251479        0.06020322772986        0.00079556102558
C            1.93135730778271       -0.57028339096870       -0.00374951394121
N            1.06731579118151       -1.60263138552707       -0.00441331487748
C            1.61028584685803       -2.79079701454848       -0.00406644997962
C            3.01483329259266       -2.99709332826569       -0.00315484752906
N            3.87740005982919       -2.01719021880232       -0.00220044908025
C            3.34634204353361       -0.77765162751204       -0.00236094587835
H            8.85990262660570       -0.30110434031825        0.01004840335871
H            5.94808067791447        2.62293712993764       -0.00036938077585
H            0.36072255841936        3.42177165194088       -0.00492685170118
H           -7.09880092272584        1.79066185084459        0.00694600686779
H           -7.38101231571856       -1.21304742825037        0.01009175842020
H           -5.75096145252115       -3.21048778173985        0.00809833872130
H            0.93520412797343       -3.63572063914429       -0.00445450048386
H            3.41796610483805       -4.00098341259589       -0.00327898680654
35
 energy: -70.453748773657 gnorm: 0.006212935922 xtb: 6.5.1 (fef0646)
C            7.86040331720292        0.11085459713839        0.00696653642621
N            7.61328194637416        1.37298404923220        0.00499700202425
C            6.29472646703870        1.61870752652529        0.00168162392305
C            5.48400261012578        0.50194158332801        0.00112456537336
S            6.47187548486442       -0.93037098128628        0.00498466636159
C            4.07090481833253        0.40698004658615       -0.00135487928646
S            2.99271855388895        1.76911322578487       -0.00256811968523
C            1.56986387058779        0.77517976914154       -0.00397011576787
C            0.24068217588283        1.24927455913099       -0.00428796480569
C           -0.25775514907762        2.54156132975328       -0.00430663492998
N           -1.58306672911420        2.65724224711016       -0.00346855067331
C           -2.17836326957406        1.49837382843680       -0.00264565523394
S           -1.08053808101622        0.11641442443056       -0.00349456509547
C           -3.57293557422873        1.26856606644948       -0.00057258653444
S           -4.74756043397281        2.56091684746557        0.00108536607167
C           -6.06079585601772        1.45283137953846        0.00491665346395
C           -5.64464497647735        0.14697880881117        0.00449208114607
C           -6.30942295106367       -1.11800727842197        0.00694751710911
C           -5.47345316814225       -2.17437606645065        0.00607156661789
Se          -3.63894576801072       -1.72377817352851        0.00125947260964
C           -4.21979031041332        0.04880753852161        0.00124518106866
C            1.92876909093065       -0.57379437307750       -0.00375310910101
N            1.06781945871514       -1.60615744564735       -0.00446768051346
C            1.60527432228386       -2.79639577087245       -0.00407759482541
C            3.01036056422952       -3.00299779648854       -0.00307297049766
N            3.86970319667474       -2.02083818505546       -0.00209424998190
C            3.34358462983166       -0.78103931571649       -0.00233112933515
H            8.85266602345598       -0.29449041642923        0.00980203538387
H            5.93977986584081        2.63290849670026       -0.00016174132860
H            0.35451338607715        3.42600431943513       -0.00484144308480
H           -7.07108708196941        1.81743986468328        0.00692312813431
H           -7.38243607202174       -1.20296346411217        0.00977013948605
H           -5.76199712370286       -3.21143566568473        0.00800195359450
H            0.92561783132211       -3.63706742124603       -0.00451650370823
H            3.41797586794296       -4.00444844068589       -0.00306554710560
35
 energy: -70.453855858935 gnorm: 0.003355538305 xtb: 6.5.1 (fef0646)
C            7.86207111478419        0.12308013491616        0.00682169725741
N            7.60914703493108        1.38419881672893        0.00490347461854
C            6.28826464059495        1.62553983016153        0.00177824293853
C            5.48193378083694        0.50640591655805        0.00116425812581
S            6.47647140835167       -0.92155334407528        0.00469099116250
C            4.07093543528633        0.40307990840429       -0.00131287033674
S            2.99377134165831        1.76551847097829       -0.00255139826196
C            1.57232031003581        0.77176594206960       -0.00396829432845
C            0.24620741194021        1.24742433498587       -0.00423682308896
C           -0.25534012757136        2.53771586894128       -0.00424019733840
N           -1.58217156811536        2.64847946009649       -0.00338302858021
C           -2.17371735373712        1.48770844577555       -0.00271736623077
S           -1.07100877254358        0.10943525719398       -0.00334855527134
C           -3.56600789481839        1.25777355691337       -0.00060690108088
S           -4.73149809804241        2.55583706001100        0.00130146146320
C           -6.05088262169627        1.45841940872631        0.00454598123278
C           -5.64319264580558        0.15003896490119        0.00454193524842
C           -6.31445807137447       -1.11320490058705        0.00717312584365
C           -5.48489088529038       -2.17455147577458        0.00609338745250
Se          -3.64847413188537       -1.73336945805085        0.00175320596967
C           -4.21828602033879        0.04243900555974        0.00151388665224
C            1.92920942695103       -0.57782371964940       -0.00374849973960
N            1.06820733062162       -1.60921863924450       -0.00450284523277
C            1.60299982553944       -2.80001563352011       -0.00405878162054
C            3.00717049882564       -3.00754332664135       -0.00294218895854
N            3.86716566294279       -2.02665340716556       -0.00198431711201
C            3.34446356998833       -0.78580879978233       -0.00230656211385
H            8.85417481339546       -0.28181415461402        0.00946494279936
H            5.93041784261015        2.63916559709666       -0.00005462869712
H            0.35244735202506        3.42538586416546       -0.00474368498145
H           -7.05486839682885        1.83602723953559        0.00666205432485
H           -7.38782199827141       -1.19400660154370        0.00955920429521
H           -5.77917120673106       -3.20961050054255        0.00740410796093
H            0.91978940392615       -3.63744879591821       -0.00460627975081
H            3.41635252460521       -4.00789661310997       -0.00284028732123
35
 energy: -70.453901957892 gnorm: 0.002694157986 xtb: 6.5.1 (fef0646)
C            7.86638649097180        0.13489428397972        0.00653816589093
N            7.60741984943103        1.39481084944846        0.00487790605003
C            6.28483374809574        1.63006763248867        0.00183728621475
C            5.48365375819530        0.50776472745330        0.00113684274136
S            6.48490266495599       -0.91550656463913        0.00451916810601
C            4.07322686070044        0.39880884670183       -0.00128804683018
S            2.99625111184900        1.76128600072391       -0.00251790650373
C            1.57528381955560        0.76834759252140       -0.00394159175840
C            0.24934317083827        1.24383954878387       -0.00416325363363
C           -0.25358904161694        2.53291889361572       -0.00416567169773
N           -1.58123049167529        2.64167582903565       -0.00324814013600
C           -2.17083014030743        1.47969441072174       -0.00242278849578
S           -1.06609900158308        0.10355545193760       -0.00333272170448
C           -3.56331841445204        1.25166506184392       -0.00032680371191
S           -4.72292839480137        2.55382095950356        0.00091726351128
C           -6.04713937425808        1.46273634092448        0.00463853723227
C           -5.64458320879954        0.15321411930906        0.00461017268825
C           -6.32055195527682       -1.10857020501673        0.00684398234306
C           -5.49569464635104       -2.17297957729648        0.00597545556059
Se          -3.65707982654328       -1.73915173296463        0.00176160472505
C           -4.22000384813149        0.03941606102996        0.00174989192634
C            1.93151662475332       -0.58137029167418       -0.00373187454330
N            1.06918283965553       -1.61146913722585       -0.00452600687605
C            1.60260810700598       -2.80273473810789       -0.00404311993133
C            3.00587421983284       -3.01136513983298       -0.00282286096722
N            3.86784878566500       -2.03223999887198       -0.00188509065110
C            3.34712596715316       -0.79033404761254       -0.00226955166524
H            8.85954530339036       -0.26703840304583        0.00911285549086
H            5.92266643924855        2.64231396439701        0.00012418393136
H            0.35210101123401        3.42194539152019       -0.00471953948589
H           -7.04759763790964        1.84726149387806        0.00651976839643
H           -7.39417116145703       -1.18596707187481        0.00927225646496
H           -5.79517450867978       -3.20648397881212        0.00747930530626
H            0.91705047731390       -3.63819336949274       -0.00466166528001
H            3.41490133879699       -4.01171348985038       -0.00262956540785
35
 energy: -70.453944857593 gnorm: 0.002167811362 xtb: 6.5.1 (fef0646)
C            7.87229005239721        0.14870609692637        0.00628335736783
N            7.60592994146718        1.40698999556040        0.00476316173603
C            6.28181679341780        1.63425042326483        0.00189644224272
C            5.48716536468732        0.50757269953108        0.00111810964161
S            6.49649103401758       -0.90992104444353        0.00416327194485
C            4.07671072860032        0.39350756558507       -0.00123323023443
S            2.99968229243755        1.75620894968576       -0.00246197665794
C            1.57882235418459        0.76436687600171       -0.00389263648748
C            0.25172408975047        1.23862191893545       -0.00408193287229
C           -0.25189750073326        2.52690853571286       -0.00404331469812
N           -1.57991336905908        2.63483152678338       -0.00307552295260
C           -2.16815604517393        1.47190182115926       -0.00237348680085
S           -1.06300130178136        0.09718061841520       -0.00311378252361
C           -3.56186828060769        1.24690486726660       -0.00029917444901
S           -4.71612326454607        2.55320143391510        0.00114757226481
C           -6.04510182714006        1.46709583894375        0.00434599132498
C           -5.64711446345902        0.15668560081569        0.00452459961635
C           -6.32759588537461       -1.10313102059788        0.00688323897238
C           -5.50713859148842       -2.17032915640547        0.00593729340805
Se          -3.66622579425605       -1.74376621590360        0.00208572016117
C           -4.22311661714585        0.03743827076585        0.00182520569156
C            1.93491907978823       -0.58527098899059       -0.00368613799181
N            1.07047116969186       -1.61361404129527       -0.00453970058401
C            1.60251354171633       -2.80564884083211       -0.00401472233375
C            3.00492802961397       -3.01577709381001       -0.00266798169105
N            3.86964833273583       -2.03870263224464       -0.00174775834863
C            3.35073218205222       -0.79557652936801       -0.00220497745241
H            8.86749914720783       -0.24817361777992        0.00865515147605
H            5.91381383222061        2.64445076571096        0.00032446013199
H            0.35262944962734        3.41660030695446       -0.00460740471181
H           -7.04305720413558        1.85676064294437        0.00614574127156
H           -7.40148302116163       -1.17677900899500        0.00905594497767
H           -5.81185356306750       -3.20239365603161        0.00717643038009
H            0.91485233274712       -3.63943232429652       -0.00470044830516
H            3.41273791756871       -4.01674887038419       -0.00236905621482
35
 energy: -70.453978332071 gnorm: 0.001922022813 xtb: 6.5.1 (fef0646)
C            7.87751552704274        0.16215879674832        0.00587881011318
N            7.60386231831573        1.41870143331780        0.00465170717261
C            6.27866117464721        1.63804998334405        0.00192973241456
C            5.49048893492413        0.50673015521751        0.00104631088593
S            6.50767307151968       -0.90499526958596        0.00384576357260
C            4.07988513711380        0.38842413815481       -0.00119896876956
S            3.00244410179958        1.75134578624876       -0.00238700075103
C            1.58174541109060        0.75998462560344       -0.00378858155187
C            0.25330339341949        1.23256071802729       -0.00393339507682
C           -0.25027381086482        2.52071522335312       -0.00389541854577
N           -1.57818367069819        2.62881128719068       -0.00288837980815
C           -2.16593244951266        1.46545575504854       -0.00201023947211
S           -1.06174114447577        0.09112212095480       -0.00300504394029
C           -3.56090061030788        1.24363801559272        0.00000031212295
S           -4.71068173232062        2.55383119897473        0.00086592312982
C           -6.04365297966900        1.47142808575532        0.00435832717803
C           -5.64967042444314        0.16002324242144        0.00446801570336
C           -6.33425205648609       -1.09737108692065        0.00649628510190
C           -5.51737215315495       -2.16715877993704        0.00585724683318
Se          -3.67472603521769       -1.74692421066437        0.00196772455910
C           -4.22621557622478        0.03633235946858        0.00194880680799
C            1.93826632351940       -0.58945295815125       -0.00360465130182
N            1.07218703611772       -1.61641949740474       -0.00449581308281
C            1.60312785024520       -2.80918377313942       -0.00394565194941
C            3.00515993224187       -3.02036478594646       -0.00249880799558
N            3.87186606174600       -2.04459342355259       -0.00160229158902
C            3.35410936233042       -0.80063171767963       -0.00212707811877
H            8.87517664814607       -0.22882355350211        0.00813127066619
H            5.90469917967858        2.64604042156115        0.00059531555637
H            0.35410160616460        3.41043683839161       -0.00451846359570
H           -7.04028420544009        1.86457003838354        0.00587715360204
H           -7.40840974097993       -1.16724235842904        0.00867586625409
H           -5.82615384229677       -3.19811759873237        0.00731427038683
H            0.91433763626995       -3.64206803647422       -0.00468344482820
H            3.41157066255961       -4.02209346013862       -0.00210716438390
35
 energy: -70.454011217371 gnorm: 0.001844733082 xtb: 6.5.1 (fef0646)
C            7.88226636829094        0.17803214343353        0.00544301393476
N            7.60003621115246        1.43247433591431        0.00439366245353
C            6.27383564107792        1.64273201073806        0.00195752334635
C            5.49326683557246        0.50575729851592        0.00098293176538
S            6.51956968041582       -0.89896546197220        0.00324561799692
C            4.08271923457561        0.38270682832939       -0.00112368783508
S            3.00410828851551        1.74547748795598       -0.00226623947237
C            1.58404501261453        0.75349793659058       -0.00360041791402
C            0.25454087162244        1.22420399144248       -0.00371873112824
C           -0.24801102430183        2.51297642235495       -0.00365265996023
N           -1.57543049334140        2.62237853433697       -0.00265477545320
C           -2.16382030508884        1.45917510907716       -0.00205485421497
S           -1.06192243085499        0.08412223261839       -0.00256060032320
C           -3.55988561273727        1.24120254235339       -0.00015365308315
S           -4.70509194931893        2.55579619797119        0.00140376550417
C           -6.04200791362653        1.47725508472327        0.00382254486696
C           -5.65245120227484        0.16449607894024        0.00416592259048
C           -6.34177287158443       -1.08966616638975        0.00656814070489
C           -5.52859133234345       -2.16251107231397        0.00569238375996
Se          -3.68449854059299       -1.74916014975266        0.00257496159393
C           -4.22952301923636        0.03605380336499        0.00181210310053
C            1.94179253509644       -0.59560487021859       -0.00343254046685
N            1.07500672100260       -1.62191497678835       -0.00435596845940
C            1.60547544414495       -2.81504971058496       -0.00380259568940
C            3.00766669124285       -3.02634833889577       -0.00228679210058
N            3.87515068125163       -2.05095330074937       -0.00142402847842
C            3.35764244248064       -0.80667990779899       -0.00200411012146
H            8.88306103980167       -0.20523497243443        0.00738418561001
H            5.89265332933696        2.64794538145891        0.00088556844295
H            0.35745423159454        3.40194647632091       -0.00424696612508
H           -7.03797550449179        1.87290884075620        0.00535906645889
H           -7.41622499788630       -1.15494011064898        0.00843206484855
H           -5.84103133594201       -3.19242947731308        0.00680615421594
H            0.91683089181157       -3.64801982374588       -0.00457091353965
H            3.41284731882037       -4.02874068409019       -0.00180162952899
35
 energy: -70.454035058266 gnorm: 0.001381835277 xtb: 6.5.1 (fef0646)
C            7.88349642578198        0.18785126587009        0.00487449077242
N            7.59626570804291        1.44112529466403        0.00423689403711
C            6.26950988562437        1.64623570153900        0.00194236077293
C            5.49342221028286        0.50593760811567        0.00086021160319
S            6.52500161818399       -0.89442810306026        0.00293884668198
C            4.08328982468911        0.37956640360568       -0.00109963900417
S            3.00310325497682        1.74138123310245       -0.00213080808639
C            1.58413793212160        0.74768899823969       -0.00336213729229
C            0.25483125454873        1.21805294669447       -0.00343388094097
C           -0.24612085624355        2.50775638406804       -0.00346077445003
N           -1.57311644055793        2.61889630156426       -0.00249100676655
C           -2.16308894295136        1.45640456125754       -0.00139003149761
S           -1.06315412655078        0.07987687741462       -0.00255938256835
C           -3.55933561443090        1.24079803010625        0.00042592872937
S           -4.70208109046773        2.55791562344080        0.00053557889490
C           -6.04087956042598        1.48198612441243        0.00411713284092
C           -5.65399560103894        0.16827605394749        0.00416912997987
C           -6.34624248473857       -1.08396168185244        0.00579124642433
C           -5.53522863643488       -2.15868693172026        0.00577712536455
Se          -3.69054297552545       -1.74935338436444        0.00167888507059
C           -4.23130201107836        0.03688059460578        0.00203708630583
C            1.94338884629267       -0.60108202116007       -0.00323759696129
N            1.07769204424404       -1.62829532722719       -0.00411506288994
C            1.60923910997802       -2.82084318088555       -0.00359725004392
C            3.01200625567642       -3.03068990512327       -0.00212601451446
N            3.87822272606624       -2.05431867582424       -0.00131757704387
C            3.35942831039368       -0.81059658570890       -0.00189949275855
H            8.88608546488937       -0.19062037952481        0.00674828406405
H            5.88389934611714        2.64970652940997        0.00115232455629
H            0.36109570520468        3.39557134527057       -0.00414750428577
H           -7.03676407220239        1.87833659685222        0.00526102079512
H           -7.42082211207866       -1.14644081151978        0.00769510232626
H           -5.84935038447148       -3.18806290669022        0.00734296186503
H            0.92210082459535       -3.65501436261721       -0.00436499265562
H            3.41753909828696       -4.03293050340282       -0.00163301202506
35
 energy: -70.454059562236 gnorm: 0.001063345259 xtb: 6.5.1 (fef0646)
C            7.88297112001495        0.19618291184080        0.00453838727727
N            7.59197030977836        1.44867145980433        0.00388359919345
C            6.26475567900474        1.64986311339070        0.00191355857109
C            5.49219800183973        0.50700083087999        0.00082336140157
S            6.52781317844988       -0.88984381763819        0.00229527692641
C            4.08265017755064        0.37733146786102       -0.00098944652341
S            3.00016524953631        1.73723257607310       -0.00195633437994
C            1.58291897770775        0.74071514110124       -0.00308917288858
C            0.25436296367113        1.21177815602583       -0.00319249678984
C           -0.24411873715051        2.50274185509481       -0.00318481805639
N           -1.57067516204657        2.61642742498231       -0.00233702480224
C           -2.16322434483607        1.45525098955742       -0.00206510165243
S           -1.06554907316465        0.07631003746659       -0.00190933558784
C           -3.55937610076856        1.24178190623087       -0.00044119756114
S           -4.70033500378404        2.56076628047092        0.00181832224573
C           -6.04030431752294        1.48719534228136        0.00320906634551
C           -5.65557758381178        0.17265679431837        0.00365486973275
C           -6.35006655175780       -1.07822604302669        0.00632075689348
C           -5.54077879197567       -2.15438302570626        0.00498618920687
Se          -3.69567940970487       -1.74811627158584        0.00358498373082
C           -4.23306958685362        0.03883190171973        0.00150269519026
C            1.94433277433279       -0.60753424942006       -0.00295694918643
N            1.08107001214286       -1.63691680948106       -0.00378789614477
C            1.61527755041712       -2.82808206242672       -0.00333078876507