      -----------------------------------------------------------      
     |                   =====================                   |     
     |                           x T B                           |     
     |                   =====================                   |     
     |                         S. Grimme                         |     
     |          Mulliken Center for Theoretical Chemistry        |     
     |                    University of Bonn                     |     
      -----------------------------------------------------------      

   * xtb version 6.7.1 (edcfbbe) compiled by 'albert@albert-system' on 2024-07-22

   xtb is free software: you can redistribute it and/or modify it under
   the terms of the GNU Lesser General Public License as published by
   the Free Software Foundation, either version 3 of the License, or
   (at your option) any later version.
   
   xtb is distributed in the hope that it will be useful,
   but WITHOUT ANY WARRANTY; without even the implied warranty of
   MERCHANTABILITY or FITNESS FOR A PARTICULAR PURPOSE.  See the
   GNU Lesser General Public License for more details.
   
   Cite this work as:
   * C. Bannwarth, E. Caldeweyher, S. Ehlert, A. Hansen, P. Pracht,
     J. Seibert, S. Spicher, S. Grimme, WIREs Comput. Mol. Sci., 2020, 11,
     e01493. DOI: 10.1002/wcms.1493
   
   for GFN2-xTB:
   * C. Bannwarth, S. Ehlert and S. Grimme., J. Chem. Theory Comput., 2019,
     15, 1652-1671. DOI: 10.1021/acs.jctc.8b01176
   for GFN1-xTB:
   * S. Grimme, C. Bannwarth, P. Shushkov, J. Chem. Theory Comput., 2017,
     13, 1989-2009. DOI: 10.1021/acs.jctc.7b00118
   for GFN0-xTB:
   * P. Pracht, E. Caldeweyher, S. Ehlert, S. Grimme, ChemRxiv, 2019, preprint.
     DOI: 10.26434/chemrxiv.8326202.v1
   for GFN-FF:
   * S. Spicher and S. Grimme, Angew. Chem. Int. Ed., 2020, 59, 15665-15673.
     DOI: 10.1002/anie.202004239
   
   for ALPB and GBSA implicit solvation:
   * S. Ehlert, M. Stahn, S. Spicher, S. Grimme, J. Chem. Theory Comput.,
     2021, 17, 4250-4261. DOI: 10.1021/acs.jctc.1c00471
   
   for ddCOSMO and CPCM-X implicit solvation:
   * M. Stahn, S. Ehlert, S. Grimme, J. Phys. Chem. A,
     2023, XX, XXXX-XXXX. DOI: 10.1021/acs.jpca.3c04382
   
   for DFT-D4:
   * E. Caldeweyher, C. Bannwarth and S. Grimme, J. Chem. Phys., 2017,
     147, 034112. DOI: 10.1063/1.4993215
   * E. Caldeweyher, S. Ehlert, A. Hansen, H. Neugebauer, S. Spicher,
     C. Bannwarth and S. Grimme, J. Chem. Phys., 2019, 150, 154122.
     DOI: 10.1063/1.5090222
   * E. Caldeweyher, J.-M. Mewes, S. Ehlert and S. Grimme, Phys. Chem. Chem. Phys.
     2020, 22, 8499-8512. DOI: 10.1039/D0CP00502A
   
   for sTDA-xTB:
   * S. Grimme and C. Bannwarth, J. Chem. Phys., 2016, 145, 054103.
     DOI: 10.1063/1.4959605
   
   in the mass-spec context:
   * V. Asgeirsson, C. Bauer and S. Grimme, Chem. Sci., 2017, 8, 4879.
     DOI: 10.1039/c7sc00601b
   * J. Koopman and S. Grimme, ACS Omega 2019, 4, 12, 15120-15133.
     DOI: 10.1021/acsomega.9b02011
   
   for metadynamics refer to:
   * S. Grimme, J. Chem. Theory Comput., 2019, 155, 2847-2862
     DOI: 10.1021/acs.jctc.9b00143
   
   for SPH calculations refer to:
   * S. Spicher and S. Grimme, J. Chem. Theory Comput., 2021, 17, 1701-1714
     DOI: 10.1021/acs.jctc.0c01306
   
   for ONIOM refer to:
   * C. Plett, A. Katbashev, S. Ehlert, S. Grimme, M. Bursch,
     Phys. Chem. Chem. Phys., 2023, 25, 17860-17868. DOI: 10.1039/D3CP02178E
   
   for DIPRO refer to:
   * J. Kohn, N. Gildemeister, S. Grimme, D. Fazzi, A. Hansen,
     J. Chem. Phys., 2023, just accepted.
   
   for PTB refer to:
   * S. Grimme, M. Mueller, A. Hansen, J. Chem. Phys., 2023, 158, 124111.
     DOI: 10.1063/5.0137838
   
   with help from (in alphabetical order)
   P. Atkinson, C. Bannwarth, F. Bohle, G. Brandenburg, E. Caldeweyher
   M. Checinski, S. Dohm, S. Ehlert, S. Ehrlich, I. Gerasimov, C. Hölzer
   A. Katbashev, J. Kohn, J. Koopman, C. Lavigne, S. Lehtola, F. März, M. Müller,
   F. Musil, H. Neugebauer, J. Pisarek, C. Plett, P. Pracht, F. Pultar,
   J. Seibert, P. Shushkov, S. Spicher, M. Stahn, M. Steiner, T. Strunk,
   J. Stückrath, T. Rose, and J. Unsleber
   
 * started run on 2024/08/07 at 21:29:46.636     
   ID    Z sym.   atoms
    1    8 O      1
    2    6 C      2-4, 6
    3    7 N      5, 7
    4    1 H      8, 9

           -------------------------------------------------
          |                Calculation Setup                |
           -------------------------------------------------

          program call               : xtb crest_best.xyz --gfn 2 --alpb toluene --opt vtight -c 0 --iterations 40
          coordinate file            : crest_best.xyz
          omp threads                :                     8


           -------------------------------------------------
          |                 G F N 2 - x T B                 |
           -------------------------------------------------

        Reference                      10.1021/acs.jctc.8b01176
      * Hamiltonian:
        H0-scaling (s, p, d)           1.850000    2.230000    2.230000
        zeta-weighting                 0.500000
      * Dispersion:
        s8                             2.700000
        a1                             0.520000
        a2                             5.000000
        s9                             5.000000
      * Repulsion:
        kExp                           1.500000    1.000000
        rExp                           1.000000
      * Coulomb:
        alpha                          2.000000
        third order                    shell-resolved
        anisotropic                    true
        a3                             3.000000
        a5                             4.000000
        cn-shift                       1.200000
        cn-exp                         4.000000
        max-rad                        5.000000

      * Solvation model:               ALPB
        Solvent                        toluene
        Parameter file                 internal GFN2-xTB/ALPB
        Dielectric constant                7.0000E+00
        Reference state                gsolv [1 M gas/solution]
        Free energy shift                  2.2081E-03 Eh       1.3856E+00 kcal/mol
        Temperature                        2.9815E+02 K
        Density                            8.6700E-01 kg/L
        Solvent mass                       7.8110E+01 g/mol
        Interaction kernel             P16
        Born radius scaling (c1)           1.7172E+00
        Born radii integrator          GBOBC
        Born offset                        0.0000E+00 a0       0.0000E+00 AA
        H-bond correction              false
        Ion screening                  false
        Surface tension                    1.0000E-05 Eh       1.5569E+01 dyn/cm
        Grid points                               230 per atom

          ...................................................
          :                      SETUP                      :
          :.................................................:
          :  # basis functions                  30          :
          :  # atomic orbitals                  30          :
          :  # shells                           16          :
          :  # electrons                        34          :
          :  max. iterations                    40          :
          :  Hamiltonian                  GFN2-xTB          :
          :  restarted?                      false          :
          :  GBSA solvation                   true          :
          :  PC potential                    false          :
          :  electronic temp.          300.0000000     K    :
          :  accuracy                    1.0000000          :
          :  -> integral cutoff          0.2500000E+02      :
          :  -> integral neglect         0.1000000E-07      :
          :  -> SCF convergence          0.1000000E-05 Eh   :
          :  -> wf. convergence          0.1000000E-03 e    :
          :  Broyden damping             0.4000000          :
          :  net charge                          0          :
          :  unpaired electrons                  0          :
          ...................................................

 iter      E             dE          RMSdq      gap      omega  full diag
   1    -19.6535591 -0.196536E+02  0.790E+00    4.24       0.0  T
   2    -19.6751105 -0.215514E-01  0.487E+00    3.59       1.0  T
   3    -19.6498261  0.252844E-01  0.333E+00    3.78       1.0  T
   4    -19.7039707 -0.541445E-01  0.874E-01    3.81       1.0  T
   5    -19.7081067 -0.413599E-02  0.212E-01    3.68       1.0  T
   6    -19.7081564 -0.497582E-04  0.712E-02    3.70       1.0  T
   7    -19.7081774 -0.209619E-04  0.232E-02    3.69       1.4  T
   8    -19.7081792 -0.183443E-05  0.104E-02    3.69       3.2  T
   9    -19.7081798 -0.561236E-06  0.345E-03    3.69       9.7  T
  10    -19.7081798 -0.370436E-07  0.176E-03    3.69      19.0  T
  11    -19.7081798 -0.133415E-07  0.303E-04    3.69     110.1  T
  12    -19.7081798 -0.130598E-09  0.982E-05    3.69     339.5  T

   *** convergence criteria satisfied after 12 iterations ***

         #    Occupation            Energy/Eh            Energy/eV
      -------------------------------------------------------------
         1        2.0000           -0.7769818             -21.1428
       ...           ...                  ...                  ...
        11        2.0000           -0.5255938             -14.3021
        12        2.0000           -0.5236162             -14.2483
        13        2.0000           -0.5173191             -14.0770
        14        2.0000           -0.5083544             -13.8330
        15        2.0000           -0.4739425             -12.8966
        16        2.0000           -0.4666259             -12.6975
        17        2.0000           -0.4561478             -12.4124 (HOMO)
        18                         -0.3206233              -8.7246 (LUMO)
        19                         -0.2734536              -7.4411
        20                         -0.2573477              -7.0028
        21                         -0.2533153              -6.8931
        22                         -0.2367974              -6.4436
       ...                                ...                  ...
        30                          1.0750242              29.2529
      -------------------------------------------------------------
                  HL-Gap            0.1355245 Eh            3.6878 eV
             Fermi-level           -0.3883855 Eh          -10.5685 eV

 SCC (total)                   0 d,  0 h,  0 min,  0.008 sec
 SCC setup                      ...        0 min,  0.000 sec (  3.589%)
 Dispersion                     ...        0 min,  0.000 sec (  1.376%)
 classical contributions        ...        0 min,  0.000 sec (  0.213%)
 integral evaluation            ...        0 min,  0.001 sec (  6.214%)
 iterations                     ...        0 min,  0.006 sec ( 73.345%)
 molecular gradient             ...        0 min,  0.001 sec ( 13.422%)
 printout                       ...        0 min,  0.000 sec (  1.225%)

         :::::::::::::::::::::::::::::::::::::::::::::::::::::
         ::                     SUMMARY                     ::
         :::::::::::::::::::::::::::::::::::::::::::::::::::::
         :: total energy             -19.376291187331 Eh    ::
         :: total w/o Gsasa/hb       -19.367072714714 Eh    ::
         :: gradient norm              0.109562032205 Eh/a0 ::
         :: HOMO-LUMO gap              3.687810148446 eV    ::
         ::.................................................::
         :: SCC energy               -19.708173232608 Eh    ::
         :: -> isotropic ES            0.038642814229 Eh    ::
         :: -> anisotropic ES          0.003114649311 Eh    ::
         :: -> anisotropic XC          0.033413780965 Eh    ::
         :: -> dispersion             -0.005768223596 Eh    ::
         :: -> Gsolv                  -0.011395828772 Eh    ::
         ::    -> Gelec               -0.002177356155 Eh    ::
         ::    -> Gsasa               -0.011426615756 Eh    ::
         ::    -> Ghb                  0.000000000000 Eh    ::
         ::    -> Gshift               0.002208143139 Eh    ::
         :: repulsion energy           0.331882045276 Eh    ::
         :: add. restraining           0.000000000000 Eh    ::
         :: total charge              -0.000000000000 e     ::
         :::::::::::::::::::::::::::::::::::::::::::::::::::::

      ----------------------------------------------------------- 
     |                   =====================                   |
     |                        A N C O P T                        |
     |                   =====================                   |
     |               Approximate Normal Coordinate               |
     |                Rational Function Optimizer                |
      ----------------------------------------------------------- 
      ----------------------------------------------------------- 
     |                   =====================                   |
     |                        A N C O P T                        |
     |                   =====================                   |
     |               Approximate Normal Coordinate               |
     |                Rational Function Optimizer                |
      ----------------------------------------------------------- 

          ...................................................
          :                      SETUP                      :
          :.................................................:
          :   optimization level         verytight          :
          :   max. optcycles                   200          :
          :   ANC micro-cycles                  20          :
          :   degrees of freedom                21          :
          :.................................................:
          :   RF solver                   davidson          :
          :   write xtbopt.log                true          :
          :   linear?                        false          :
          :   energy convergence         0.1000000E-06 Eh   :
          :   grad. convergence          0.2000000E-03 Eh/α :
          :   maxmium RF displ.          1.0000000          :
          :   Hlow (freq-cutoff)         0.1000000E-01      :
          :   Hmax (freq-cutoff)         5.0000000          :
          :   S6 in model hess.         20.0000000          :
          ...................................................

generating ANC from exact Hessian ...
Using Lindh-Hessian (1995)
 Shifting diagonal of input Hessian by   4.568673780227475E-003
 Lowest  eigenvalues of input Hessian
    0.000000    0.000000    0.000000    0.000000    0.000000    0.000000
    0.010000    0.014256    0.018774    0.027187    0.045704    0.072703
    0.091707    0.126944    0.141290    0.147648    0.208943    0.379852
 Highest eigenvalues
    0.977899    1.091952    1.427775    2.229223    2.512265    2.576405
 

........................................................................
.............................. CYCLE    1 ..............................
........................................................................

 iter      E             dE          RMSdq      gap      omega  full diag
   1    -19.7081798 -0.197082E+02  0.331E-05    3.69       0.0  T
   2    -19.7081798  0.401457E-12  0.332E-05    3.69    1004.6  T
   3    -19.7081798 -0.798650E-11  0.834E-06    3.69    3998.6  T
     SCC iter.                  ...        0 min,  0.001 sec
     gradient                   ...        0 min,  0.002 sec
 * total energy  :   -19.3762912 Eh     change       -0.5597656E-10 Eh
   gradient norm :     0.1095613 Eh/α   predicted     0.0000000E+00 (-100.00%)
   displ. norm   :     0.1172685 α      lambda       -0.7321826E-02
   maximum displ.:     0.0654082 α      in ANC's #12, #10, #4, ...

........................................................................
.............................. CYCLE    2 ..............................
........................................................................

 iter      E             dE          RMSdq      gap      omega  full diag
   1    -19.7269461 -0.197269E+02  0.266E-01    3.67       0.0  T
   2    -19.7269952 -0.491057E-04  0.182E-01    3.68       1.0  T
   3    -19.7269537  0.415138E-04  0.103E-01    3.67       1.0  T
   4    -19.7270187 -0.650696E-04  0.324E-02    3.68       1.0  T
   5    -19.7270242 -0.545938E-05  0.756E-03    3.68       4.4  T
   6    -19.7270243 -0.920711E-07  0.337E-03    3.67       9.9  T
   7    -19.7270243 -0.346472E-07  0.107E-03    3.68      31.2  T
   8    -19.7270243 -0.740030E-09  0.467E-04    3.68      71.4  T
   9    -19.7270243 -0.778140E-09  0.234E-04    3.68     142.2  T
     SCC iter.                  ...        0 min,  0.003 sec
     gradient                   ...        0 min,  0.001 sec
 * total energy  :   -19.3805066 Eh     change       -0.4215374E-02 Eh
   gradient norm :     0.0252308 Eh/α   predicted    -0.3711254E-02 ( -11.96%)
   displ. norm   :     0.1649751 α      lambda       -0.1485107E-02
   maximum displ.:     0.1119453 α      in ANC's #2, #4, #3, ...

........................................................................
.............................. CYCLE    3 ..............................
........................................................................

 iter      E             dE          RMSdq      gap      omega  full diag
   1    -19.7211624 -0.197212E+02  0.444E-01    3.68       0.0  T
   2    -19.7211892 -0.267682E-04  0.260E-01    3.68       1.0  T
   3    -19.7210237  0.165488E-03  0.155E-01    3.67       1.0  T
   4    -19.7212203 -0.196561E-03  0.171E-02    3.67       1.9  T
   5    -19.7212208 -0.553518E-06  0.815E-03    3.67       4.1  T
   6    -19.7212209 -0.796107E-07  0.210E-03    3.67      15.9  T
   7    -19.7212209 -0.100360E-07  0.104E-03    3.67      32.0  T
   8    -19.7212209 -0.338720E-08  0.377E-04    3.67      88.5  T
   9    -19.7212209 -0.544887E-09  0.188E-04    3.67     177.1  T
     SCC iter.                  ...        0 min,  0.002 sec
     gradient                   ...        0 min,  0.001 sec
 * total energy  :   -19.3812807 Eh     change       -0.7741352E-03 Eh
   gradient norm :     0.0146922 Eh/α   predicted    -0.7627632E-03 (  -1.47%)
   displ. norm   :     0.1187342 α      lambda       -0.5864013E-03
   maximum displ.:     0.0640354 α      in ANC's #2, #1, #4, ...

........................................................................
.............................. CYCLE    4 ..............................
........................................................................

 iter      E             dE          RMSdq      gap      omega  full diag
   1    -19.7184449 -0.197184E+02  0.324E-01    3.70       0.0  T
   2    -19.7184577 -0.128709E-04  0.184E-01    3.69       1.0  T
   3    -19.7184227  0.350679E-04  0.728E-02    3.69       1.0  T
   4    -19.7184651 -0.424375E-04  0.953E-03    3.69       3.5  T
   5    -19.7184652 -0.107900E-06  0.438E-03    3.69       7.6  T
   6    -19.7184652 -0.342998E-07  0.206E-03    3.69      16.2  T
   7    -19.7184653 -0.113162E-07  0.917E-04    3.69      36.3  T
   8    -19.7184653 -0.369115E-08  0.222E-04    3.69     149.8  T
     SCC iter.                  ...        0 min,  0.003 sec
     gradient                   ...        0 min,  0.004 sec
 * total energy  :   -19.3814221 Eh     change       -0.1414415E-03 Eh
   gradient norm :     0.0090350 Eh/α   predicted    -0.2973364E-03 ( 110.22%)
   displ. norm   :     0.0606395 α      lambda       -0.2457286E-03
   maximum displ.:     0.0364371 α      in ANC's #2, #1, #3, ...

........................................................................
.............................. CYCLE    5 ..............................
........................................................................

 iter      E             dE          RMSdq      gap      omega  full diag
   1    -19.7210026 -0.197210E+02  0.180E-01    3.70       0.0  T
   2    -19.7210062 -0.356664E-05  0.102E-01    3.69       1.0  T
   3    -19.7209954  0.108214E-04  0.400E-02    3.70       1.0  T
   4    -19.7210088 -0.134057E-04  0.404E-03    3.69       8.3  T
   5    -19.7210088 -0.178023E-07  0.138E-03    3.69      24.1  T
   6    -19.7210088 -0.704777E-08  0.468E-04    3.69      71.3  T
   7    -19.7210088 -0.315399E-09  0.273E-04    3.69     122.0  T
     SCC iter.                  ...        0 min,  0.008 sec
     gradient                   ...        0 min,  0.007 sec
 * total energy  :   -19.3815704 Eh     change       -0.1482281E-03 Eh
   gradient norm :     0.0038494 Eh/α   predicted    -0.1233150E-03 ( -16.81%)
   displ. norm   :     0.0887630 α      lambda       -0.1307394E-03
   maximum displ.:     0.0766583 α      in ANC's #3, #1, #4, ...

........................................................................
.............................. CYCLE    6 ..............................
........................................................................

 iter      E             dE          RMSdq      gap      omega  full diag
   1    -19.7226888 -0.197227E+02  0.189E-01    3.69       0.0  T
   2    -19.7226899 -0.109911E-05  0.112E-01    3.69       1.0  T
   3    -19.7226769  0.130664E-04  0.418E-02    3.69       1.0  T
   4    -19.7226915 -0.146109E-04  0.492E-03    3.69       6.8  T
   5    -19.7226915 -0.172895E-07  0.242E-03    3.69      13.8  T
   6    -19.7226915 -0.226878E-07  0.917E-04    3.69      36.3  T
   7    -19.7226915 -0.865647E-09  0.490E-04    3.69      68.0  T
     SCC iter.                  ...        0 min,  0.002 sec
     gradient                   ...        0 min,  0.001 sec
 * total energy  :   -19.3816460 Eh     change       -0.7567928E-04 Eh
   gradient norm :     0.0033382 Eh/α   predicted    -0.6588407E-04 ( -12.94%)
   displ. norm   :     0.1374160 α      lambda       -0.1397403E-03
   maximum displ.:     0.1205890 α      in ANC's #3, #4, #5, ...

........................................................................
.............................. CYCLE    7 ..............................
........................................................................

 iter      E             dE          RMSdq      gap      omega  full diag
   1    -19.7226554 -0.197227E+02  0.275E-01    3.67       0.0  T
   2    -19.7226567 -0.134288E-05  0.162E-01    3.67       1.0  T
   3    -19.7226483  0.841824E-05  0.351E-02    3.67       1.0  T
   4    -19.7226580 -0.973075E-05  0.503E-03    3.67       6.6  T
   5    -19.7226580  0.217756E-07  0.328E-03    3.67      10.1  T
   6    -19.7226580 -0.547577E-07  0.842E-04    3.67      39.6  T
   7    -19.7226580 -0.144092E-08  0.461E-04    3.67      72.4  T
     SCC iter.                  ...        0 min,  0.002 sec
     gradient                   ...        0 min,  0.001 sec
 * total energy  :   -19.3817525 Eh     change       -0.1064442E-03 Eh
   gradient norm :     0.0059414 Eh/α   predicted    -0.7118570E-04 ( -33.12%)
   displ. norm   :     0.2571707 α      lambda       -0.2134683E-03
   maximum displ.:     0.2127155 α      in ANC's #3, #5, #4, ...

........................................................................
.............................. CYCLE    8 ..............................
........................................................................

 iter      E             dE          RMSdq      gap      omega  full diag
   1    -19.7204888 -0.197205E+02  0.504E-01    3.63       0.0  T
   2    -19.7204948 -0.605345E-05  0.296E-01    3.63       1.0  T
   3    -19.7204812  0.135778E-04  0.493E-02    3.63       1.0  T
   4    -19.7204984 -0.171271E-04  0.907E-03    3.63       3.7  T
   5    -19.7204984 -0.494283E-07  0.495E-03    3.63       6.7  T
   6    -19.7204984 -0.326694E-07  0.263E-03    3.63      12.7  T
   7    -19.7204985 -0.335617E-07  0.105E-03    3.63      31.9  T
   8    -19.7204985 -0.264133E-08  0.452E-04    3.63      73.7  T
   9    -19.7204985 -0.396987E-09  0.200E-04    3.63     166.8  T
     SCC iter.                  ...        0 min,  0.002 sec
     gradient                   ...        0 min,  0.001 sec
 * total energy  :   -19.3818167 Eh     change       -0.6423163E-04 Eh
   gradient norm :     0.0173233 Eh/α   predicted    -0.1137858E-03 (  77.15%)
   displ. norm   :     0.0507000 α      lambda       -0.2048569E-03
   maximum displ.:     0.0371485 α      in ANC's #3, #1, #4, ...

........................................................................
.............................. CYCLE    9 ..............................
........................................................................

 iter      E             dE          RMSdq      gap      omega  full diag
   1    -19.7225315 -0.197225E+02  0.115E-01    3.66       0.0  T
   2    -19.7225327 -0.117294E-05  0.675E-02    3.66       1.0  T
   3    -19.7225262  0.652317E-05  0.298E-02    3.66       1.1  T
   4    -19.7225336 -0.745812E-05  0.372E-03    3.66       8.9  T
   5    -19.7225337 -0.319871E-07  0.186E-03    3.66      17.9  T
   6    -19.7225337 -0.100559E-08  0.942E-04    3.66      35.4  T
   7    -19.7225337 -0.389078E-08  0.346E-04    3.66      96.5  T
     SCC iter.                  ...        0 min,  0.002 sec
     gradient                   ...        0 min,  0.001 sec
 * total energy  :   -19.3819403 Eh     change       -0.1235511E-03 Eh
   gradient norm :     0.0070606 Eh/α   predicted    -0.1026923E-03 ( -16.88%)
   displ. norm   :     0.1188617 α      lambda       -0.1366806E-03
   maximum displ.:     0.0932941 α      in ANC's #3, #5, #2, ...

........................................................................
.............................. CYCLE   10 ..............................
........................................................................

 iter      E             dE          RMSdq      gap      omega  full diag
   1    -19.7224352 -0.197224E+02  0.226E-01    3.67       0.0  T
   2    -19.7224364 -0.112724E-05  0.134E-01    3.67       1.0  T
   3    -19.7224236  0.127624E-04  0.421E-02    3.67       1.0  T
   4    -19.7224379 -0.143113E-04  0.483E-03    3.67       6.9  T
   5    -19.7224379  0.978135E-08  0.309E-03    3.67      10.8  T
   6    -19.7224380 -0.478596E-07  0.866E-04    3.67      38.5  T
   7    -19.7224380 -0.866731E-09  0.492E-04    3.67      67.8  T
     SCC iter.                  ...        0 min,  0.002 sec
     gradient                   ...        0 min,  0.001 sec
 * total energy  :   -19.3820523 Eh     change       -0.1120313E-03 Eh
   gradient norm :     0.0038735 Eh/α   predicted    -0.6930729E-04 ( -38.14%)
   displ. norm   :     0.3085807 α      lambda       -0.2688052E-03
   maximum displ.:     0.2292142 α      in ANC's #3, #5, #2, ...

........................................................................
.............................. CYCLE   11 ..............................
........................................................................

 iter      E             dE          RMSdq      gap      omega  full diag
   1    -19.7192904 -0.197193E+02  0.576E-01    3.62       0.0  T
   2    -19.7193025 -0.120985E-04  0.338E-01    3.63       1.0  T
   3    -19.7192690  0.335179E-04  0.736E-02    3.63       1.0  T
   4    -19.7193085 -0.394906E-04  0.131E-02    3.63       2.5  T
   5    -19.7193088 -0.341635E-06  0.706E-03    3.63       4.7  T
   6    -19.7193090 -0.184982E-06  0.378E-03    3.63       8.8  T
   7    -19.7193090 -0.387146E-07  0.157E-03    3.63      21.3  T
   8    -19.7193090 -0.589231E-08  0.533E-04    3.63      62.5  T
   9    -19.7193090 -0.228205E-09  0.262E-04    3.63     127.1  T
     SCC iter.                  ...        0 min,  0.006 sec
     gradient                   ...        0 min,  0.002 sec
 * total energy  :   -19.3821467 Eh     change       -0.9439728E-04 Eh
   gradient norm :     0.0169491 Eh/α   predicted    -0.1472012E-03 (  55.94%)
   displ. norm   :     0.0709851 α      lambda       -0.2155290E-03
   maximum displ.:     0.0605669 α      in ANC's #3, #4, #2, ...

........................................................................
.............................. CYCLE   12 ..............................
........................................................................

 iter      E             dE          RMSdq      gap      omega  full diag
   1    -19.7228198 -0.197228E+02  0.143E-01    3.69       0.0  T
   2    -19.7228250 -0.519779E-05  0.831E-02    3.68       1.0  T
   3    -19.7228244  0.607604E-06  0.163E-02    3.68       2.0  T
   4    -19.7228253 -0.896582E-06  0.714E-03    3.68       4.7  T
   5    -19.7228256 -0.304657E-06  0.303E-03    3.68      11.0  T
   6    -19.7228256 -0.489837E-07  0.110E-03    3.68      30.4  T
   7    -19.7228256 -0.137693E-08  0.613E-04    3.68      54.4  T
   8    -19.7228256 -0.118926E-08  0.214E-04    3.68     155.9  T
     SCC iter.                  ...        0 min,  0.002 sec
     gradient                   ...        0 min,  0.001 sec
 * total energy  :   -19.3822111 Eh     change       -0.6440427E-04 Eh
   gradient norm :     0.0043022 Eh/α   predicted    -0.1083071E-03 (  68.17%)
   displ. norm   :     0.1024945 α      lambda       -0.1192227E-03
   maximum displ.:     0.0803599 α      in ANC's #3, #2, #4, ...

........................................................................
.............................. CYCLE   13 ..............................
........................................................................

 iter      E             dE          RMSdq      gap      omega  full diag
   1    -19.7230388 -0.197230E+02  0.223E-01    3.67       0.0  T
   2    -19.7230422 -0.338632E-05  0.129E-01    3.68       1.0  T
   3    -19.7230388  0.334025E-05  0.274E-02    3.68       1.2  T
   4    -19.7230440 -0.512313E-05  0.579E-03    3.68       5.8  T
   5    -19.7230440  0.503390E-08  0.234E-03    3.68      14.2  T
   6    -19.7230440 -0.276808E-07  0.911E-04    3.68      36.6  T
   7    -19.7230440 -0.165566E-08  0.544E-04    3.68      61.3  T
     SCC iter.                  ...        0 min,  0.002 sec
     gradient                   ...        0 min,  0.001 sec
 * total energy  :   -19.3822690 Eh     change       -0.5787868E-04 Eh
   gradient norm :     0.0047219 Eh/α   predicted    -0.6023684E-04 (   4.07%)
   displ. norm   :     0.1551490 α      lambda       -0.1076804E-03
   maximum displ.:     0.1046053 α      in ANC's #3, #5, #2, ...

........................................................................
.............................. CYCLE   14 ..............................
........................................................................

 iter      E             dE          RMSdq      gap      omega  full diag
   1    -19.7214211 -0.197214E+02  0.286E-01    3.64       0.0  T
   2    -19.7214250 -0.395045E-05  0.168E-01    3.64       1.0  T
   3    -19.7214187  0.629090E-05  0.339E-02    3.65       1.0  T
   4    -19.7214265 -0.771546E-05  0.605E-03    3.65       5.5  T
   5    -19.7214265 -0.827696E-07  0.273E-03    3.65      12.2  T
   6    -19.7214266 -0.116124E-07  0.139E-03    3.65      24.0  T
   7    -19.7214266 -0.152896E-08  0.494E-04    3.65      67.4  T
   8    -19.7214266 -0.822101E-09  0.233E-04    3.65     142.8  T
     SCC iter.                  ...        0 min,  0.004 sec
     gradient                   ...        0 min,  0.001 sec
 * total energy  :   -19.3823126 Eh     change       -0.4365655E-04 Eh
   gradient norm :     0.0120932 Eh/α   predicted    -0.5513665E-04 (  26.30%)
   displ. norm   :     0.0114177 α      lambda       -0.7067077E-04
   maximum displ.:     0.0070891 α      in ANC's #3, #2, #13, ...

........................................................................
.............................. CYCLE   15 ..............................
........................................................................

 iter      E             dE          RMSdq      gap      omega  full diag
   1    -19.7225932 -0.197226E+02  0.310E-02    3.67       0.0  T
   2    -19.7225944 -0.119729E-05  0.173E-02    3.66       1.9  T
   3    -19.7225944 -0.640934E-07  0.594E-03    3.66       5.6  T
   4    -19.7225945 -0.301250E-07  0.209E-03    3.66      15.9  T
   5    -19.7225945 -0.139609E-07  0.952E-04    3.66      35.0  T
   6    -19.7225945 -0.510054E-08  0.349E-04    3.66      95.5  T
     SCC iter.                  ...        0 min,  0.002 sec
     gradient                   ...        0 min,  0.001 sec
 * total energy  :   -19.3823607 Eh     change       -0.4806712E-04 Eh
   gradient norm :     0.0053908 Eh/α   predicted    -0.3533918E-04 ( -26.48%)
   displ. norm   :     0.1340663 α      lambda       -0.7877226E-04
   maximum displ.:     0.0970126 α      in ANC's #3, #5, #2, ...

........................................................................
.............................. CYCLE   16 ..............................
........................................................................

 iter      E             dE          RMSdq      gap      omega  full diag
   1    -19.7224123 -0.197224E+02  0.241E-01    3.67       0.0  T
   2    -19.7224139 -0.156080E-05  0.143E-01    3.67       1.0  T
   3    -19.7224075  0.634938E-05  0.324E-02    3.67       1.0  T
   4    -19.7224149 -0.741049E-05  0.416E-03    3.67       8.0  T
   5    -19.7224149 -0.155619E-07  0.213E-03    3.67      15.6  T
   6    -19.7224149 -0.213711E-08  0.138E-03    3.67      24.2  T
   7    -19.7224149 -0.541554E-08  0.618E-04    3.67      53.9  T
   8    -19.7224149 -0.191664E-08  0.150E-04    3.67     221.8  T
     SCC iter.                  ...        0 min,  0.002 sec
     gradient                   ...        0 min,  0.001 sec
 * total energy  :   -19.3824101 Eh     change       -0.4939118E-04 Eh
   gradient norm :     0.0031800 Eh/α   predicted    -0.4009438E-04 ( -18.82%)
   displ. norm   :     0.1525342 α      lambda       -0.6988700E-04
   maximum displ.:     0.0931245 α      in ANC's #3, #2, #5, ...

........................................................................
.............................. CYCLE   17 ..............................
........................................................................

 iter      E             dE          RMSdq      gap      omega  full diag
   1    -19.7222784 -0.197223E+02  0.286E-01    3.66       0.0  T
   2    -19.7222812 -0.274844E-05  0.168E-01    3.66       1.0  T
   3    -19.7222741  0.713531E-05  0.359E-02    3.66       1.0  T
   4    -19.7222829 -0.882651E-05  0.605E-03    3.66       5.5  T
   5    -19.7222829 -0.834445E-08  0.290E-03    3.66      11.5  T
   6    -19.7222829 -0.275388E-07  0.143E-03    3.66      23.3  T
   7    -19.7222829 -0.369239E-08  0.837E-04    3.66      39.8  T
   8    -19.7222829 -0.352114E-08  0.280E-04    3.66     119.0  T
     SCC iter.                  ...        0 min,  0.002 sec
     gradient                   ...        0 min,  0.001 sec
 * total energy  :   -19.3824444 Eh     change       -0.3425259E-04 Eh
   gradient norm :     0.0064988 Eh/α   predicted    -0.3575744E-04 (   4.39%)
   displ. norm   :     0.0225359 α      lambda       -0.3618466E-04
   maximum displ.:     0.0129624 α      in ANC's #3, #12, #2, ...

........................................................................
.............................. CYCLE   18 ..............................
........................................................................

 iter      E             dE          RMSdq      gap      omega  full diag
   1    -19.7236784 -0.197237E+02  0.461E-02    3.68       0.0  T
   2    -19.7236792 -0.756120E-06  0.268E-02    3.68       1.2  T
   3    -19.7236792  0.288109E-07  0.535E-03    3.68       6.2  T
   4    -19.7236792 -0.574790E-07  0.300E-03    3.68      11.1  T
   5    -19.7236793 -0.605838E-07  0.108E-03    3.68      30.9  T
   6    -19.7236793 -0.553544E-08  0.403E-04    3.68      82.6  T
   7    -19.7236793 -0.460432E-11  0.231E-04    3.68     144.5  T
     SCC iter.                  ...        0 min,  0.003 sec
     gradient                   ...        0 min,  0.001 sec
 * total energy  :   -19.3824617 Eh     change       -0.1731631E-04 Eh
   gradient norm :     0.0019698 Eh/α   predicted    -0.1810300E-04 (   4.54%)
   displ. norm   :     0.1684235 α      lambda       -0.2949237E-04
   maximum displ.:     0.1221963 α      in ANC's #3, #5, #12, ...

........................................................................
.............................. CYCLE   19 ..............................
........................................................................

 iter      E             dE          RMSdq      gap      omega  full diag
   1    -19.7224726 -0.197225E+02  0.308E-01    3.66       0.0  T
   2    -19.7224746 -0.202331E-05  0.182E-01    3.67       1.0  T
   3    -19.7224680  0.656867E-05  0.337E-02    3.67       1.0  T
   4    -19.7224760 -0.798682E-05  0.535E-03    3.67       6.2  T
   5    -19.7224760  0.308552E-08  0.298E-03    3.67      11.2  T
   6    -19.7224761 -0.291862E-07  0.165E-03    3.67      20.2  T
   7    -19.7224761 -0.806787E-08  0.636E-04    3.67      52.4  T
   8    -19.7224761 -0.113123E-08  0.216E-04    3.67     154.5  T
     SCC iter.                  ...        0 min,  0.003 sec
     gradient                   ...        0 min,  0.001 sec
 * total energy  :   -19.3824656 Eh     change       -0.3912755E-05 Eh
   gradient norm :     0.0051933 Eh/α   predicted    -0.1493300E-04 ( 281.65%)
   displ. norm   :     0.0371132 α      lambda       -0.3207767E-04
   maximum displ.:     0.0292092 α      in ANC's #3, #5, #2, ...

........................................................................
.............................. CYCLE   20 ..............................
........................................................................

 iter      E             dE          RMSdq      gap      omega  full diag
   1    -19.7231343 -0.197231E+02  0.683E-02    3.67       0.0  T
   2    -19.7231345 -0.192787E-06  0.403E-02    3.67       1.0  T
   3    -19.7231341  0.324043E-06  0.779E-03    3.67       4.3  T
   4    -19.7231346 -0.419261E-06  0.163E-03    3.67      20.4  T
   5    -19.7231346 -0.330438E-08  0.104E-03    3.67      31.9  T
   6    -19.7231346 -0.260341E-08  0.439E-04    3.67      75.9  T
   7    -19.7231346 -0.495024E-09  0.243E-04    3.67     137.1  T
     SCC iter.                  ...        0 min,  0.002 sec
     gradient                   ...        0 min,  0.001 sec
 * total energy  :   -19.3824850 Eh     change       -0.1945556E-04 Eh
   gradient norm :     0.0020198 Eh/α   predicted    -0.1605955E-04 ( -17.46%)
   displ. norm   :     0.0298155 α      lambda       -0.9907310E-05
   maximum displ.:     0.0150277 α      in ANC's #3, #12, #2, ...
 * RMSD in coord.:     0.5319447 α      energy gain  -0.6193848E-02 Eh

generating ANC from exact Hessian ...
Using Lindh-Hessian (1995)
 Shifting diagonal of input Hessian by   5.069958645373820E-003
 Lowest  eigenvalues of input Hessian
    0.000000    0.000000    0.000000    0.000000    0.000000    0.000000
    0.010000    0.011474    0.020584    0.024235    0.030349    0.054231
    0.084844    0.110262    0.118850    0.137951    0.208802    0.356702
 Highest eigenvalues
    0.947560    1.073967    1.279933    2.220250    2.546423    2.588815
 

........................................................................
.............................. CYCLE   21 ..............................
........................................................................

 iter      E             dE          RMSdq      gap      omega  full diag
   1    -19.7231401 -0.197231E+02  0.576E-02    3.67       0.0  T
   2    -19.7231402 -0.103484E-06  0.339E-02    3.67       1.0  T
   3    -19.7231398  0.414607E-06  0.837E-03    3.67       4.0  T
   4    -19.7231403 -0.489566E-06  0.112E-03    3.67      29.7  T
   5    -19.7231403 -0.621558E-09  0.527E-04    3.67      63.2  T
   6    -19.7231403 -0.595694E-09  0.268E-04    3.67     124.6  T
     SCC iter.                  ...        0 min,  0.005 sec
     gradient                   ...        0 min,  0.001 sec
 * total energy  :   -19.3824916 Eh     change       -0.6597978E-05 Eh
   gradient norm :     0.0015365 Eh/α   predicted     0.0000000E+00 (-100.00%)
   displ. norm   :     0.0480041 α      lambda       -0.1355545E-04
   maximum displ.:     0.0452577 α      in ANC's #1, #2, #3, ...

........................................................................
.............................. CYCLE   22 ..............................
........................................................................

 iter      E             dE          RMSdq      gap      omega  full diag
   1    -19.7233466 -0.197233E+02  0.154E-01    3.68       0.0  T
   2    -19.7233494 -0.274131E-05  0.855E-02    3.67       1.0  T
   3    -19.7233498 -0.416346E-06  0.980E-03    3.68       3.4  T
   4    -19.7233504 -0.601523E-06  0.362E-03    3.67       9.2  T
   5    -19.7233504 -0.244335E-07  0.196E-03    3.67      17.0  T
   6    -19.7233505 -0.197967E-07  0.451E-04    3.67      73.9  T
   7    -19.7233505 -0.188610E-09  0.156E-04    3.67     213.3  T
     SCC iter.                  ...        0 min,  0.006 sec
     gradient                   ...        0 min,  0.001 sec
 * total energy  :   -19.3824699 Eh     change        0.2173334E-04 Eh
   gradient norm :     0.0028375 Eh/α   predicted    -0.6783870E-05 (-131.21%)
   displ. norm   :     0.0212616 α      lambda       -0.3468817E-04
   maximum displ.:     0.0184510 α      in ANC's #1, #2, #6, ...

........................................................................
.............................. CYCLE   23 ..............................
........................................................................

 iter      E             dE          RMSdq      gap      omega  full diag
   1    -19.7236770 -0.197237E+02  0.743E-02    3.68       0.0  T
   2    -19.7236776 -0.609339E-06  0.411E-02    3.68       1.0  T
   3    -19.7236778 -0.137556E-06  0.397E-03    3.68       8.4  T
   4    -19.7236779 -0.100212E-06  0.143E-03    3.68      23.3  T
   5    -19.7236779 -0.267493E-08  0.724E-04    3.68      46.0  T
   6    -19.7236779 -0.293581E-08  0.178E-04    3.68     187.8  T
     SCC iter.                  ...        0 min,  0.013 sec
     gradient                   ...        0 min,  0.001 sec
 * total energy  :   -19.3824929 Eh     change       -0.2296015E-04 Eh
   gradient norm :     0.0012405 Eh/α   predicted    -0.1735202E-04 ( -24.43%)
   displ. norm   :     0.0212883 α      lambda       -0.8986575E-05
   maximum displ.:     0.0124164 α      in ANC's #2, #1, #4, ...

........................................................................
.............................. CYCLE   24 ..............................
........................................................................

 iter      E             dE          RMSdq      gap      omega  full diag
   1    -19.7232119 -0.197232E+02  0.661E-02    3.67       0.0  T
   2    -19.7232125 -0.518254E-06  0.370E-02    3.68       1.0  T
   3    -19.7232124  0.413255E-07  0.606E-03    3.67       5.5  T
   4    -19.7232127 -0.235788E-06  0.195E-03    3.68      17.1  T
   5    -19.7232127 -0.634157E-08  0.939E-04    3.68      35.5  T
   6    -19.7232127 -0.305547E-08  0.309E-04    3.68     108.0  T
     SCC iter.                  ...        0 min,  0.003 sec
     gradient                   ...        0 min,  0.001 sec
 * total energy  :   -19.3824913 Eh     change        0.1530600E-05 Eh
   gradient norm :     0.0016275 Eh/α   predicted    -0.4492435E-05 (-393.51%)
   displ. norm   :     0.0188876 α      lambda       -0.9798373E-05
   maximum displ.:     0.0157050 α      in ANC's #3, #5, #2, ...

........................................................................
.............................. CYCLE   25 ..............................
........................................................................

 iter      E             dE          RMSdq      gap      omega  full diag
   1    -19.7233213 -0.197233E+02  0.536E-02    3.68       0.0  T
   2    -19.7233216 -0.294030E-06  0.301E-02    3.68       1.1  T
   3    -19.7233216 -0.604916E-08  0.414E-03    3.68       8.1  T
   4    -19.7233217 -0.112615E-06  0.159E-03    3.68      21.0  T
   5    -19.7233217 -0.485100E-08  0.437E-04    3.68      76.2  T
   6    -19.7233217 -0.277019E-09  0.245E-04    3.68     135.9  T
     SCC iter.                  ...        0 min,  0.002 sec
     gradient                   ...        0 min,  0.002 sec
 * total energy  :   -19.3824942 Eh     change       -0.2848219E-05 Eh
   gradient norm :     0.0010136 Eh/α   predicted    -0.4898647E-05 (  71.99%)
   displ. norm   :     0.0171793 α      lambda       -0.6584295E-05
   maximum displ.:     0.0151246 α      in ANC's #1, #2, #5, ...

........................................................................
.............................. CYCLE   26 ..............................
........................................................................

 iter      E             dE          RMSdq      gap      omega  full diag
   1    -19.7238119 -0.197238E+02  0.567E-02    3.68       0.0  T
   2    -19.7238123 -0.319726E-06  0.316E-02    3.68       1.1  T
   3    -19.7238122  0.349607E-07  0.477E-03    3.68       7.0  T
   4    -19.7238124 -0.167439E-06  0.119E-03    3.68      28.0  T
   5    -19.7238124 -0.327064E-08  0.557E-04    3.68      59.8  T
   6    -19.7238124 -0.108374E-08  0.218E-04    3.68     153.2  T
     SCC iter.                  ...        0 min,  0.002 sec
     gradient                   ...        0 min,  0.001 sec
 * total energy  :   -19.3824960 Eh     change       -0.1867789E-05 Eh
   gradient norm :     0.0013621 Eh/α   predicted    -0.3291912E-05 (  76.25%)
   displ. norm   :     0.0109704 α      lambda       -0.3629522E-05
   maximum displ.:     0.0069010 α      in ANC's #2, #4, #1, ...

........................................................................
.............................. CYCLE   27 ..............................
........................................................................

 iter      E             dE          RMSdq      gap      omega  full diag
   1    -19.7235415 -0.197235E+02  0.265E-02    3.68       0.0  T
   2    -19.7235416 -0.465106E-07  0.154E-02    3.68       2.2  T
   3    -19.7235416  0.252142E-07  0.276E-03    3.68      12.1  T
   4    -19.7235416 -0.460800E-07  0.832E-04    3.68      40.1  T
   5    -19.7235416  0.154582E-09  0.321E-04    3.68     103.8  T
     SCC iter.                  ...        0 min,  0.001 sec
     gradient                   ...        0 min,  0.002 sec
 * total energy  :   -19.3824970 Eh     change       -0.9177507E-06 Eh
   gradient norm :     0.0006928 Eh/α   predicted    -0.1814900E-05 (  97.76%)
   displ. norm   :     0.0137209 α      lambda       -0.2899842E-05
   maximum displ.:     0.0103722 α      in ANC's #2, #3, #4, ...

........................................................................
.............................. CYCLE   28 ..............................
........................................................................

 iter      E             dE          RMSdq      gap      omega  full diag
   1    -19.7232361 -0.197232E+02  0.365E-02    3.67       0.0  T
   2    -19.7232363 -0.131207E-06  0.206E-02    3.68       1.6  T
   3    -19.7232362  0.649302E-07  0.421E-03    3.67       7.9  T
   4    -19.7232363 -0.123946E-06  0.102E-03    3.68      32.8  T
   5    -19.7232363 -0.636366E-09  0.546E-04    3.68      61.1  T
   6    -19.7232363 -0.106905E-08  0.208E-04    3.68     160.0  T
     SCC iter.                  ...        0 min,  0.002 sec
     gradient                   ...        0 min,  0.001 sec
 * total energy  :   -19.3824983 Eh     change       -0.1335906E-05 Eh
   gradient norm :     0.0009851 Eh/α   predicted    -0.1451012E-05 (   8.62%)
   displ. norm   :     0.0064764 α      lambda       -0.1061314E-05
   maximum displ.:     0.0042955 α      in ANC's #3, #1, #4, ...

........................................................................
.............................. CYCLE   29 ..............................
........................................................................

 iter      E             dE          RMSdq      gap      omega  full diag
   1    -19.7235584 -0.197236E+02  0.158E-02    3.68       0.0  T
   2    -19.7235584 -0.212931E-07  0.899E-03    3.68       3.7  T
   3    -19.7235584  0.199364E-07  0.199E-03    3.68      16.8  T
   4    -19.7235584 -0.290438E-07  0.501E-04    3.68      66.5  T
   5    -19.7235584 -0.763809E-09  0.228E-04    3.68     145.9  T
     SCC iter.                  ...        0 min,  0.001 sec
     gradient                   ...        0 min,  0.001 sec
 * total energy  :   -19.3824993 Eh     change       -0.9662338E-06 Eh
   gradient norm :     0.0002836 Eh/α   predicted    -0.5296019E-06 ( -45.19%)
   displ. norm   :     0.0115640 α      lambda       -0.5735841E-06
   maximum displ.:     0.0081744 α      in ANC's #3, #4, #1, ...

........................................................................
.............................. CYCLE   30 ..............................
........................................................................

 iter      E             dE          RMSdq      gap      omega  full diag
   1    -19.7235322 -0.197235E+02  0.223E-02    3.68       0.0  T
   2    -19.7235322 -0.167471E-07  0.131E-02    3.68       2.5  T
   3    -19.7235322  0.398841E-07  0.272E-03    3.68      12.2  T
   4    -19.7235322 -0.504079E-07  0.479E-04    3.68      69.6  T
   5    -19.7235322 -0.981260E-10  0.172E-04    3.68     193.6  T
     SCC iter.                  ...        0 min,  0.003 sec
     gradient                   ...        0 min,  0.001 sec
 * total energy  :   -19.3825000 Eh     change       -0.7113220E-06 Eh
   gradient norm :     0.0001966 Eh/α   predicted    -0.2881679E-06 ( -59.49%)
   displ. norm   :     0.0419859 α      lambda       -0.1512102E-05
   maximum displ.:     0.0302394 α      in ANC's #3, #4, #2, ...

........................................................................
.............................. CYCLE   31 ..............................
........................................................................

 iter      E             dE          RMSdq      gap      omega  full diag
   1    -19.7235816 -0.197236E+02  0.784E-02    3.67       0.0  T
   2    -19.7235818 -0.150691E-06  0.461E-02    3.67       1.0  T
   3    -19.7235812  0.542557E-06  0.973E-03    3.67       3.4  T
   4    -19.7235819 -0.656281E-06  0.149E-03    3.67      22.3  T
   5    -19.7235819 -0.164761E-08  0.482E-04    3.67      69.2  T
   6    -19.7235819 -0.202824E-09  0.272E-04    3.67     122.5  T
     SCC iter.                  ...        0 min,  0.003 sec
     gradient                   ...        0 min,  0.001 sec
 * total energy  :   -19.3825015 Eh     change       -0.1523706E-05 Eh
   gradient norm :     0.0006192 Eh/α   predicted    -0.7557614E-06 ( -50.40%)
   displ. norm   :     0.0328857 α      lambda       -0.7616652E-06
   maximum displ.:     0.0239245 α      in ANC's #3, #4, #2, ...

........................................................................
.............................. CYCLE   32 ..............................
........................................................................

 iter      E             dE          RMSdq      gap      omega  full diag
   1    -19.7234543 -0.197235E+02  0.609E-02    3.67       0.0  T
   2    -19.7234544 -0.902041E-07  0.359E-02    3.67       1.0  T
   3    -19.7234540  0.391057E-06  0.816E-03    3.67       4.1  T
   4    -19.7234545 -0.464571E-06  0.115E-03    3.67      28.9  T
   5    -19.7234545 -0.870514E-09  0.429E-04    3.67      77.7  T
   6    -19.7234545 -0.215774E-09  0.283E-04    3.67     117.7  T
     SCC iter.                  ...        0 min,  0.002 sec
     gradient                   ...        0 min,  0.001 sec
 * total energy  :   -19.3825022 Eh     change       -0.7034272E-06 Eh
   gradient norm :     0.0002766 Eh/α   predicted    -0.3793228E-06 ( -46.08%)
   displ. norm   :     0.0084976 α      lambda       -0.1886867E-06
   maximum displ.:     0.0063621 α      in ANC's #3, #4, #2, ...

........................................................................
.............................. CYCLE   33 ..............................
........................................................................

 iter      E             dE          RMSdq      gap      omega  full diag
   1    -19.7235252 -0.197235E+02  0.160E-02    3.68       0.0  T
   2    -19.7235252 -0.774100E-08  0.939E-03    3.68       3.5  T
   3    -19.7235252  0.204571E-07  0.192E-03    3.68      17.4  T
   4    -19.7235252 -0.255920E-07  0.325E-04    3.68     102.7  T
   5    -19.7235252 -0.116351E-10  0.150E-04    3.68     222.2  T
     SCC iter.                  ...        0 min,  0.002 sec
     gradient                   ...        0 min,  0.001 sec
 * total energy  :   -19.3825024 Eh     change       -0.1877882E-06 Eh
   gradient norm :     0.0001411 Eh/α   predicted    -0.9523294E-07 ( -49.29%)
   displ. norm   :     0.0073157 α      lambda       -0.8466724E-07
   maximum displ.:     0.0056637 α      in ANC's #3, #2, #4, ...

........................................................................
.............................. CYCLE   34 ..............................
........................................................................

 iter      E             dE          RMSdq      gap      omega  full diag
   1    -19.7234940 -0.197235E+02  0.135E-02    3.68       0.0  T
   2    -19.7234940 -0.495220E-08  0.793E-03    3.68       4.2  T
   3    -19.7234940  0.126210E-07  0.152E-03    3.68      21.9  T
   4    -19.7234940 -0.158645E-07  0.264E-04    3.68     126.2  T
   5    -19.7234940 -0.307629E-10  0.126E-04    3.68     264.4  T
     SCC iter.                  ...        0 min,  0.002 sec
     gradient                   ...        0 min,  0.001 sec
 * total energy  :   -19.3825025 Eh     change       -0.8340918E-07 Eh
   gradient norm :     0.0000839 Eh/α   predicted    -0.4231559E-07 ( -49.27%)
   displ. norm   :     0.0016150 α      lambda       -0.4067405E-07
   maximum displ.:     0.0012822 α      in ANC's #4, #13, #1, ...

   *** GEOMETRY OPTIMIZATION CONVERGED AFTER 34 ITERATIONS ***

------------------------------------------------------------------------
 total energy gain   :        -0.0062113 Eh       -3.8976 kcal/mol
 total RMSD          :         0.5784200 a0        0.3061 Å
 total power (kW/mol):        -0.4796392 (step)  -81.3824 (real)
------------------------------------------------------------------------

 ANCopt (total)                0 d,  0 h,  0 min,  0.200 sec
 optimizer setup                ...        0 min,  0.000 sec (  0.053%)
 model hessian                  ...        0 min,  0.002 sec (  0.824%)
 ANC generation                 ...        0 min,  0.000 sec (  0.160%)
 coordinate transformation      ...        0 min,  0.000 sec (  0.181%)
 single point calculation       ...        0 min,  0.189 sec ( 94.171%)
 optimization log               ...        0 min,  0.003 sec (  1.297%)
 hessian update                 ...        0 min,  0.003 sec (  1.252%)
 rational function              ...        0 min,  0.002 sec (  1.136%)

================
 final structure:
================
9
 xtb: 6.7.1 (edcfbbe)
O           -1.82223904311932        1.60740776175557        0.24427841440002
C           -0.97972133951856        0.96794451678390       -0.30203130445790
C            0.02136875935191        0.07607217080002        0.45131501620154
C            1.37035566673983        0.52760771033184        0.16892150828548
N            2.42701906931434        0.89315325676014       -0.05787512986213
C           -0.12921183341879       -1.29500913410023        0.00312359731595
N           -0.25641435304271       -2.37096676853258       -0.35428341071524
H           -0.83788777329207        0.95409228474293       -1.39516256707248
H           -0.16753151271465        0.13282557835840        1.53301637130479
 
 Bond Distances (Angstroems)
 ---------------------------
O1-C2=1.1905         C2-O1=1.1905         C2-C3=1.5379         C2-H8=1.1024         C3-C2=1.5379         C3-C4=1.4503         
C3-C6=1.4503         C3-H9=1.0995         C4-C3=1.4503         C4-N5=1.1409         N5-C4=1.1409         C6-C3=1.4503         
C6-N7=1.1409         N7-C6=1.1409         H8-C2=1.1024         H9-C3=1.0995         
 C  H  Rav=1.1010 sigma=0.0014  Rmin=1.0995  Rmax=1.1024     2
 C  C  Rav=1.4795 sigma=0.0413  Rmin=1.4503  Rmax=1.5379     3
 N  C  Rav=1.1409 sigma=0.0000  Rmin=1.1409  Rmax=1.1409     2
 O  C  Rav=1.1905 sigma=0.0000  Rmin=1.1905  Rmax=1.1905     1
 
 selected bond angles (degree)
 --------------------
C3-C2-O1=123.19                H8-C2-O1=123.56                H8-C2-C3=113.25                C4-C3-C2=109.24                
C6-C3-C2=109.23                C6-C3-C4=109.31                H9-C3-C2=109.89                H9-C3-C4=109.59                
H9-C3-C6=109.57                N5-C4-C3=179.39                N7-C6-C3=179.48                
 
 selected dihedral angles (degree)
 ---------------------------------
C4-C3-C2-O1=239.58            C4-C3-C2-H8= 59.61            C6-C3-C2-O1=120.07            C6-C3-C2-H8=300.09            
H9-C3-C2-O1=359.84            H9-C3-C2-H8=179.86            N5-C4-C3-C2= 13.81            N5-C4-C3-C6=133.27            
N5-C4-C3-H9=253.37            N7-C6-C3-C2=348.41            N7-C6-C3-C4=228.94            N7-C6-C3-H9=108.83            
           -------------------------------------------------
          |                Final Singlepoint                |
           -------------------------------------------------

          ...................................................
          :                      SETUP                      :
          :.................................................:
          :  # basis functions                  30          :
          :  # atomic orbitals                  30          :
          :  # shells                           16          :
          :  # electrons                        34          :
          :  max. iterations                    40          :
          :  Hamiltonian                  GFN2-xTB          :
          :  restarted?                      false          :
          :  GBSA solvation                   true          :
          :  PC potential                    false          :
          :  electronic temp.          300.0000000     K    :
          :  accuracy                    1.0000000          :
          :  -> integral cutoff          0.2500000E+02      :
          :  -> integral neglect         0.1000000E-07      :
          :  -> SCF convergence          0.1000000E-05 Eh   :
          :  -> wf. convergence          0.1000000E-03 e    :
          :  Broyden damping             0.4000000          :
          :  net charge                          0          :
          :  unpaired electrons                  0          :
          ...................................................

 iter      E             dE          RMSdq      gap      omega  full diag
   1    -19.7234940 -0.197235E+02  0.552E-05    3.68       0.0  T
   2    -19.7234940 -0.247979E-11  0.366E-05    3.68     911.3  T
   3    -19.7234940 -0.211031E-11  0.265E-05    3.68    1258.9  T

   *** convergence criteria satisfied after 3 iterations ***

         #    Occupation            Energy/Eh            Energy/eV
      -------------------------------------------------------------
         1        2.0000           -0.7763734             -21.1262
       ...           ...                  ...                  ...
        11        2.0000           -0.5289347             -14.3930
        12        2.0000           -0.5269320             -14.3386
        13        2.0000           -0.5210882             -14.1795
        14        2.0000           -0.5133365             -13.9686
        15        2.0000           -0.4740174             -12.8987
        16        2.0000           -0.4671134             -12.7108
        17        2.0000           -0.4563388             -12.4176 (HOMO)
        18                         -0.3212695              -8.7422 (LUMO)
        19                         -0.2661595              -7.2426
        20                         -0.2524926              -6.8707
        21                         -0.2454366              -6.6787
        22                         -0.2300370              -6.2596
       ...                                ...                  ...
        30                          1.1255122              30.6267
      -------------------------------------------------------------
                  HL-Gap            0.1350692 Eh            3.6754 eV
             Fermi-level           -0.3888041 Eh          -10.5799 eV

 SCC (total)                   0 d,  0 h,  0 min,  0.004 sec
 SCC setup                      ...        0 min,  0.000 sec (  3.466%)
 Dispersion                     ...        0 min,  0.000 sec (  0.833%)
 classical contributions        ...        0 min,  0.000 sec (  0.211%)
 integral evaluation            ...        0 min,  0.001 sec ( 15.335%)
 iterations                     ...        0 min,  0.001 sec ( 24.963%)
 molecular gradient             ...        0 min,  0.002 sec ( 51.156%)
 printout                       ...        0 min,  0.000 sec (  2.607%)

         :::::::::::::::::::::::::::::::::::::::::::::::::::::
         ::                     SUMMARY                     ::
         :::::::::::::::::::::::::::::::::::::::::::::::::::::
         :: total energy             -19.382502475313 Eh    ::
         :: total w/o Gsasa/hb       -19.373239910418 Eh    ::
         :: gradient norm              0.000084410821 Eh/a0 ::
         :: HOMO-LUMO gap              3.675420741210 eV    ::
         ::.................................................::
         :: SCC energy               -19.723487032365 Eh    ::
         :: -> isotropic ES            0.035681718289 Eh    ::
         :: -> anisotropic ES          0.002823006687 Eh    ::
         :: -> anisotropic XC          0.034091699432 Eh    ::
         :: -> dispersion             -0.005773778329 Eh    ::
         :: -> Gsolv                  -0.011157867737 Eh    ::
         ::    -> Gelec               -0.001895302842 Eh    ::
         ::    -> Gsasa               -0.011470708033 Eh    ::
         ::    -> Ghb                  0.000000000000 Eh    ::
         ::    -> Gshift               0.002208143139 Eh    ::
         :: repulsion energy           0.340984557052 Eh    ::
         :: add. restraining           0.000000000000 Eh    ::
         :: total charge              -0.000000000000 e     ::
         :::::::::::::::::::::::::::::::::::::::::::::::::::::

           -------------------------------------------------
          |                Property Printout                |
           -------------------------------------------------

    * Orbital Energies and Occupations

         #    Occupation            Energy/Eh            Energy/eV
      -------------------------------------------------------------
         1        2.0000           -0.7763734             -21.1262
       ...           ...                  ...                  ...
         5        2.0000           -0.6592644             -17.9395
         6        2.0000           -0.6279430             -17.0872
         7        2.0000           -0.6247364             -16.9999
         8        2.0000           -0.5944370             -16.1755
         9        2.0000           -0.5809732             -15.8091
        10        2.0000           -0.5688691             -15.4797
        11        2.0000           -0.5289347             -14.3930
        12        2.0000           -0.5269320             -14.3386
        13        2.0000           -0.5210882             -14.1795
        14        2.0000           -0.5133365             -13.9686
        15        2.0000           -0.4740174             -12.8987
        16        2.0000           -0.4671134             -12.7108
        17        2.0000           -0.4563388             -12.4176 (HOMO)
        18                         -0.3212695              -8.7422 (LUMO)
        19                         -0.2661595              -7.2426
        20                         -0.2524926              -6.8707
        21                         -0.2454366              -6.6787
        22                         -0.2300370              -6.2596
        23                          0.0335073               0.9118
        24                          0.0745098               2.0275
        25                          0.1179014               3.2083
        26                          0.1380847               3.7575
        27                          0.1880952               5.1183
        28                          0.5840877              15.8938
       ...                                ...                  ...
        30                          1.1255122              30.6267
      -------------------------------------------------------------
                  HL-Gap            0.1350692 Eh            3.6754 eV
             Fermi-level           -0.3888041 Eh          -10.5799 eV

     #   Z          covCN         q      C6AA      α(0)
     1   8 O        0.856    -0.279    19.405     5.906
     2   6 C        2.772     0.235    23.082     7.869
     3   6 C        3.856    -0.013    20.773     6.482
     4   6 C        1.925     0.133    27.853     8.523
     5   7 N        0.911    -0.195    25.230     7.265
     6   6 C        1.925     0.133    27.852     8.523
     7   7 N        0.911    -0.195    25.230     7.265
     8   1 H        0.923     0.056     2.243     2.342
     9   1 H        0.923     0.125     1.573     1.961

 Mol. C6AA /au·bohr⁶  :       1371.598167
 Mol. C8AA /au·bohr⁸  :      33579.628303
 Mol. α(0) /au        :         56.135438


Wiberg/Mayer (AO) data.
largest (>0.10) Wiberg bond orders for each atom

 ---------------------------------------------------------------------------
     #   Z sym  total        # sym  WBO       # sym  WBO       # sym  WBO
 ---------------------------------------------------------------------------
     1   8 O    2.153 --     2 C    1.972
     2   6 C    3.912 --     1 O    1.972     8 H    0.933     3 C    0.913
     3   6 C    3.994 --     4 C    0.999     6 C    0.999     2 C    0.913
                             9 H    0.905
     4   6 C    3.950 --     5 N    2.863     3 C    0.999
     5   7 N    3.038 --     4 C    2.863
     6   6 C    3.950 --     7 N    2.863     3 C    0.999
     7   7 N    3.038 --     6 C    2.863
     8   1 H    0.997 --     2 C    0.933
     9   1 H    0.984 --     3 C    0.905
 ---------------------------------------------------------------------------

Topologies differ in total number of bonds
Writing topology from bond orders to xtbtopo.mol

molecular dipole:
                 x           y           z       tot (Debye)
 q only:       -0.092       0.065       0.135
   full:       -0.358       0.271       0.283       1.349
molecular quadrupole (traceless):
                xx          xy          yy          xz          yz          zz
 q only:       -3.712       0.663      -3.025       1.433      -1.984       6.737
  q+dip:       -5.785       0.119      -4.992       1.767      -2.804      10.777
   full:       -6.039      -0.265      -5.281       2.331      -3.372      11.320

           -------------------------------------------------
          |                Geometry Summary                 |
           -------------------------------------------------

      molecular mass/u    :       94.0716364
   center of mass at/Å    :        0.0386025       0.1003084       0.0226813
  moments of inertia/u·Å² :        0.1689719E+03   0.1891324E+03   0.3387219E+03
rotational constants/cm⁻¹ :        0.9976588E-01   0.8913140E-01   0.4976836E-01

 * 5 selected distances

     #   Z          #   Z                                           value/Å
     1   8 O        2   6 C                                       1.1904637 (max)
     4   6 C        5   7 N                                       1.1408760
     6   6 C        7   7 N                                       1.1408792
     2   6 C        8   1 H                                       1.1023814
     3   6 C        9   1 H                                       1.0995373 (min)

 * 3 distinct bonds (by element types)

   Z      Z             #   av. dist./Å        max./Å        min./Å
   1 H    6 C           2     1.1009594     1.1023814     1.0995373
   6 C    7 N           2     1.1408776     1.1408792     1.1408760
   6 C    8 O           1     1.1904637     1.1904637     1.1904637


optimized geometry written to: xtbopt.xyz


           -------------------------------------------------
          | TOTAL ENERGY              -19.382502475313 Eh   |
          | GRADIENT NORM               0.000084410821 Eh/α |
          | HOMO-LUMO GAP               3.675420741210 eV   |
           -------------------------------------------------

------------------------------------------------------------------------
 * finished run on 2024/08/07 at 21:29:46.861     
------------------------------------------------------------------------
 total:
 * wall-time:     0 d,  0 h,  0 min,  0.225 sec
 *  cpu-time:     0 d,  0 h,  0 min,  1.668 sec
 * ratio c/w:     7.426 speedup
 SCF:
 * wall-time:     0 d,  0 h,  0 min,  0.008 sec
 *  cpu-time:     0 d,  0 h,  0 min,  0.063 sec
 * ratio c/w:     7.597 speedup
 ANC optimizer:
 * wall-time:     0 d,  0 h,  0 min,  0.205 sec
 *  cpu-time:     0 d,  0 h,  0 min,  1.531 sec
 * ratio c/w:     7.464 speedup

