9
 energy: -19.376291187387 gnorm: 0.109561254551 xtb: 6.7.1 (edcfbbe)
O           -2.08026758740000        1.09779895810000        0.05412379340000
C           -0.94995093530000        0.97320320700000       -0.30340866270000
C            0.05216185650000        0.09472191610000        0.39345916950000
C            1.39072135390000        0.47118357600000        0.10309738610000
N            2.47776512770000        0.78391348150000       -0.14196048830000
C           -0.15969861030000       -1.27460951610000        0.08213937760000
N           -0.33163855460000       -2.38966849600000       -0.17606517160000
H           -0.66298271240000        1.51856946680000       -1.20046197050000
H           -0.11037229780000        0.21801478350000        1.48037906190000
9
 energy: -19.380506560928 gnorm: 0.025230898498 xtb: 6.7.1 (edcfbbe)
O           -2.09952086526009        1.10609862400941        0.06541647471615
C           -0.97055540017985        0.97077145996494       -0.30894060380689
C            0.05244384746679        0.10053132291521        0.40767639850220
C            1.40868514135615        0.46978412578848        0.09230593796227
N            2.47393190718871        0.79416595314202       -0.14436440803616
C           -0.17100280944454       -1.28443835946998        0.07795741952213
N           -0.32854646927038       -2.38068899657479       -0.18394679784854
H           -0.63125278370064        1.50232758039090       -1.21058564767808
H           -0.10844492785615        0.21457566673379        1.49578372206692
9
 energy: -19.381280696107 gnorm: 0.014692408094 xtb: 6.7.1 (edcfbbe)
O           -2.11278035792239        1.09857034255989        0.06515349371963
C           -0.98154773640135        0.97899909018900       -0.30013748096489
C            0.05182163273254        0.11464959292524        0.43168558376110
C            1.41409788935070        0.49748171537080        0.11098056259905
N            2.48294011057617        0.77860245539452       -0.16885838843879
C           -0.16259515880327       -1.27834073074616        0.07385394852678
N           -0.34051576353403       -2.36675083117512       -0.21239353078708
H           -0.61274268277631        1.45963765936819       -1.22750088194650
H           -0.11294029292207        0.21027808301365        1.51851918893072
9
 energy: -19.381422137602 gnorm: 0.009035221086 xtb: 6.7.1 (edcfbbe)
O           -2.10664352096116        1.11853191147139        0.07902133863362
C           -0.98858224693368        0.97203052362944       -0.30602278047024
C            0.05011204258104        0.11495746487051        0.43964557115416
C            1.41464393601335        0.48156133488068        0.09423545875354
N            2.47750670732632        0.81173111095779       -0.15799553587628
C           -0.17614851891188       -1.27851242157763        0.07183027185994
N           -0.34341228097381       -2.36940574270161       -0.22007798735615
H           -0.59584938301558        1.43419149173914       -1.23442670449220
H           -0.10588909482462        0.20804170363029        1.52509286319361
9
 energy: -19.381570365750 gnorm: 0.003849764826 xtb: 6.7.1 (edcfbbe)
O           -2.10450761456063        1.12042053068882        0.08047066257108
C           -0.98833142940944        0.97129520617840       -0.30613034805515
C            0.05012253393854        0.11702370935905        0.44180412791085
C            1.41090448144795        0.49243036506433        0.10726373426914
N            2.47701981943808        0.79394831002581       -0.16574351661180
C           -0.16943150520032       -1.27325157330275        0.07032229754625
N           -0.33777854095236       -2.36205168555222       -0.22602567119282
H           -0.60114439537995        1.42563472561027       -1.23678238653003
H           -0.11111570902188        0.20767778882829        1.52612359549249
9
 energy: -19.381646045031 gnorm: 0.003338503300 xtb: 6.7.1 (edcfbbe)
O           -2.09731412161481        1.13214325436720        0.09120345653659
C           -0.98513008463763        0.97378585195392       -0.30213895801844
C            0.05273394889049        0.11757408223009        0.44476750416433
C            1.41010173550545        0.49422119831207        0.11322867866646
N            2.47558399142185        0.79752334537898       -0.15965405437045
C           -0.16473896759132       -1.26805378863397        0.06646662177185
N           -0.34402689433628       -2.35248766888812       -0.23813736700560
H           -0.61098033294453        1.39319066492694       -1.25290509671043
H           -0.11049163439322        0.20523043725289        1.52847171036569
9
 energy: -19.381752489185 gnorm: 0.005943326990 xtb: 6.7.1 (edcfbbe)
O           -2.08495778478640        1.16556435005803        0.11343342176505
C           -0.98548085539312        0.97109461720080       -0.30285131590596
C            0.05287027573863        0.11765110742320        0.45051402641571
C            1.40699744783112        0.49815540819650        0.12309333103460
N            2.47248783954675        0.79923478636440       -0.15475527171086
C           -0.16409213317962       -1.26214605772806        0.05964232495424
N           -0.33605936949449       -2.34465254585571       -0.25594784695103
H           -0.62071296942333        1.34663767078345       -1.27483932564893
H           -0.11531481053954        0.20158804045739        1.53301315144718
9
 energy: -19.381816720813 gnorm: 0.017340006422 xtb: 6.7.1 (edcfbbe)
O           -2.05713706929908        1.23104205591746        0.15479853701724
C           -0.98492811194772        0.96258510671364       -0.30541625033983
C            0.05437121760883        0.11501885187982        0.45840186769818
C            1.40542592414113        0.50426901518014        0.13614253467045
N            2.46789144338707        0.81766990196700       -0.13906907462052
C           -0.15731414015428       -1.25824922460694        0.04840919865179
N           -0.33697400403225       -2.33434293248510       -0.28671065844365
H           -0.64264673565959        1.26123308767608       -1.31487707853143
H           -0.12295088374411        0.19390151465790        1.53962341929779
9
 energy: -19.381940271887 gnorm: 0.007064751157 xtb: 6.7.1 (edcfbbe)
O           -2.05762954400660        1.22551048087437        0.14546425989855
C           -0.98441829077241        0.96440132974127       -0.30477524318179
C            0.05278582510528        0.11426097958588        0.45586616920069
C            1.40671879763450        0.50130115855814        0.13149109186379
N            2.46918137219576        0.81698333729928       -0.14086251921644
C           -0.16344028940809       -1.26104973171496        0.04977263573636
N           -0.33127312735239       -2.34039715583873       -0.27884300415321
H           -0.64290812610645        1.27757649437193       -1.30477060277472
H           -0.12327897698961        0.19454048402282        1.53795970802677
9
 energy: -19.382052303229 gnorm: 0.003876626675 xtb: 6.7.1 (edcfbbe)
O           -2.04020340947109        1.26092915865835        0.15917521689606
C           -0.98283598774661        0.96358888313913       -0.30319367986999
C            0.05132877661214        0.11169384988716        0.45726626700536
C            1.40708072076832        0.50364077518267        0.13522437839808
N            2.46801693249491        0.82803433929727       -0.13257046852818
C           -0.16386537235813       -1.26335355090232        0.04442532592102
N           -0.32761642628257       -2.34181583100651       -0.28894755647828
H           -0.65898083391612        1.24158752037071       -1.31979834459902
H           -0.12718675980086        0.18882223227354        1.53972135665496
9
 energy: -19.382146700511 gnorm: 0.016980366677 xtb: 6.7.1 (edcfbbe)
O           -1.99393374873552        1.35487333556024        0.19647231419730
C           -0.97984705661839        0.95722505888125       -0.30300471113597
C            0.04782692745879        0.10352036796109        0.45763189571315
C            1.40472104145817        0.51340292407282        0.14705370299505
N            2.46227814118770        0.85695558046122       -0.10984055443513
C           -0.15195349525749       -1.27183040059291        0.03244320822829
N           -0.32724991948053       -2.34471420836192       -0.31343833446756
H           -0.69980268714242        1.15060385397953       -1.35600881879369
H           -0.13630156257032        0.17309086493869        1.53999379309856
9
 energy: -19.382211104782 gnorm: 0.004305178708 xtb: 6.7.1 (edcfbbe)
O           -1.99967090963695        1.33705065643695        0.18337732355554
C           -0.98032731916056        0.96009872471547       -0.30211900249074
C            0.04699044457870        0.10447947664728        0.45514866314463
C            1.40368816098832        0.51394054881466        0.14443228472702
N            2.46211636592791        0.85151555715111       -0.11391767466075
C           -0.14848000290534       -1.27381107019677        0.03618927694603
N           -0.33111437525994       -2.34738620641700       -0.30508401756136
H           -0.69487986822282        1.17338645758057       -1.34448099796244
H           -0.13258485600934        0.17385323216773        1.53775663970207
9
 energy: -19.382268983462 gnorm: 0.004725910482 xtb: 6.7.1 (edcfbbe)
O           -1.98674258525563        1.36741555345519        0.19426158505162
C           -0.98009810740103        0.96615644818388       -0.29932145146768
C            0.04248787979823        0.10329294347404        0.45511863667754
C            1.39854577106149        0.51282883693720        0.14735823568232
N            2.45769631113016        0.84924591831542       -0.10867088975696
C           -0.15610785460228       -1.27225387941793        0.03047596401739
N           -0.30820833157638       -2.35023987603577       -0.31002921605085
H           -0.70608954938226        1.14813095767733       -1.35576040208393
H           -0.13574589347228        0.16855047431064        1.53787003333058
9
 energy: -19.382312640016 gnorm: 0.012124410234 xtb: 6.7.1 (edcfbbe)
O           -1.95970888670718        1.42026107195134        0.21157793589008
C           -0.98017775751513        0.96451178157107       -0.30143565881200
C            0.03782871707005        0.09758912487932        0.45278301924794
C            1.39270970915518        0.51548750957674        0.15110290995620
N            2.45165723665326        0.85986427972715       -0.09770724476881
C           -0.15096188293556       -1.27763276352375        0.02449023271361
N           -0.29678602905375       -2.35582465233460       -0.31724170029831
H           -0.72649656262918        1.10888567494485       -1.36765389573826
H           -0.14232690373770        0.15998535010789        1.53538689720957
9
 energy: -19.382360707132 gnorm: 0.005401288174 xtb: 6.7.1 (edcfbbe)
O           -1.95792415439725        1.41887639843872        0.20965241298702
C           -0.98094974462529        0.96463070364514       -0.30216429722813
C            0.03763831336918        0.09746527696018        0.45295115752889
C            1.39184044808395        0.51597496919271        0.15053565789960
N            2.45132879610911        0.85923740212026       -0.09821217981700
C           -0.14769615094143       -1.27811691765150        0.02499071793014
N           -0.29876912443618       -2.35573371604313       -0.31663340868400
H           -0.72693095969276        1.11071369639141       -1.36538506810906
H           -0.14279978316934        0.16007956384621        1.53556750289255
9
 energy: -19.382410098315 gnorm: 0.003196029523 xtb: 6.7.1 (edcfbbe)
O           -1.93166401908578        1.45998798988550        0.22113772320703
C           -0.98164697851589        0.96670669921369       -0.30168331778432
C            0.03401807091084        0.09406987570245        0.45362222086653
C            1.38659054643219        0.52011957707574        0.15476567243347
N            2.44652279150330        0.86453202403132       -0.08961434483891
C           -0.13932708798758       -1.28097496403452        0.01951136502468
N           -0.29201911759734       -2.35788098100560       -0.32587619797184
H           -0.74821211624541        1.07332327023506       -1.37674523307858
H           -0.14852444911434        0.15324388579635        1.53618460754195
9
 energy: -19.382444350907 gnorm: 0.006523286864 xtb: 6.7.1 (edcfbbe)
O           -1.90025231597658        1.51169525606361        0.23322276652737
C           -0.98273196595233        0.96925890911707       -0.30303723567973
C            0.02810823191678        0.08713002607386        0.44978946019786
C            1.37886054949573        0.52096331494801        0.15649816467955
N            2.43985456752043        0.86884694922300       -0.07878121305001
C           -0.13476807815282       -1.28667884693234        0.01343190428376
N           -0.27247283322332       -2.36658712435937       -0.32906610175310
H           -0.77350296908208        1.04196920892749       -1.38275347543493
H           -0.15735754624583        0.14652968383866        1.53199822562925
9
 energy: -19.382461667216 gnorm: 0.001970695782 xtb: 6.7.1 (edcfbbe)
O           -1.89431422189259        1.51665552309344        0.23313385863160
C           -0.98255461979762        0.97044396427736       -0.30249423163478
C            0.02775506391920        0.08604066164226        0.44917300657162
C            1.37866500083319        0.52055213738249        0.15662218513405
N            2.44004796495211        0.86830178885600       -0.07657334824332
C           -0.13593626330734       -1.28685707042920        0.01224466464652
N           -0.26911267495015       -2.36740812999592       -0.32912837903340
H           -0.78034215444388        1.03879417232900       -1.38290282981441
H           -0.15847045501294        0.14660432974457        1.53122756914213
9
 energy: -19.382465579971 gnorm: 0.005248927408 xtb: 6.7.1 (edcfbbe)
O           -1.85822473783043        1.56595332825283        0.24509614483458
C           -0.98160357285089        0.97113082170074       -0.30150173715120
C            0.02456912955516        0.08106922740807        0.44934612531954
C            1.37530419103970        0.52488294600344        0.16217725617175
N            2.43656055925852        0.87779730861875       -0.06365547957103
C           -0.13176680855143       -1.29034953531466        0.00493595618570
N           -0.26213945787495       -2.36947362630040       -0.34013984187926
H           -0.81320807909091        0.99291009532311       -1.39612942575335
H           -0.16375358335480        0.13920681120812        1.53117349724329
9
 energy: -19.382485035529 gnorm: 0.002037080702 xtb: 6.7.1 (edcfbbe)
O           -1.86468614429256        1.55499597487423        0.24121368234175
C           -0.98162676911510        0.96917626130641       -0.30235376368692
C            0.02557002098766        0.08216158848522        0.44989804923275
C            1.37647378395422        0.52467127318152        0.16131558036392
N            2.43707377443212        0.87756014522570       -0.06696523430884
C           -0.13258149813649       -1.29003722368527        0.00707686972678
N           -0.26634333048166       -2.36882705303641       -0.33859479957690
H           -0.80625515779768        1.00241951059337       -1.39204462809091
H           -0.16188703925053        0.14100689995523        1.53175673939839
9
 energy: -19.382491633507 gnorm: 0.001536618456 xtb: 6.7.1 (edcfbbe)
O           -1.85715327980307        1.56447338852445        0.24151187118854
C           -0.98137093376267        0.96835598041795       -0.30267729129235
C            0.02476569646234        0.08086942848891        0.44960721817312
C            1.37519133238207        0.52497796027883        0.16181554061933
N            2.43513257877650        0.88067786475257       -0.06544529529152
C           -0.13245851520902       -1.29135105871183        0.00669169346784
N           -0.26491674962777       -2.37026689987581       -0.34012969418699
H           -0.81109156928927        0.99551858931466       -1.39152026022601
H           -0.16236091962912        0.13987212371028        1.53144871294805
9
 energy: -19.382469900169 gnorm: 0.002837863478 xtb: 6.7.1 (edcfbbe)
O           -1.85603804973931        1.56491749830481        0.23792031254679
C           -0.97939448718781        0.96763863672768       -0.30218373928993
C            0.02520707520043        0.08210833716150        0.45364424584654
C            1.37600096133086        0.52581352970890        0.16876622614558
N            2.43368000011135        0.87938008722166       -0.07218865140340
C           -0.13110654102370       -1.29210946145471        0.01625386283795
N           -0.26699747784649       -2.36266425168648       -0.35442585404361
H           -0.81202463433710        0.98455787320382       -1.39159417903755
H           -0.16358920620825        0.14348512771282        1.53511027179765
9
 energy: -19.382492860315 gnorm: 0.001240511554 xtb: 6.7.1 (edcfbbe)
O           -1.85530612944443        1.56594279343170        0.23928429272306
C           -0.97994744151141        0.96806281452102       -0.30209049468012
C            0.02513381224070        0.08172307943094        0.45211610395941
C            1.37560383968458        0.52547810250915        0.16601270377061
N            2.43404392759718        0.88069509497290       -0.06871578252207
C           -0.13217527646690       -1.29097495169824        0.01037443243828
N           -0.26618758226210       -2.36560009413524       -0.34809595094351
H           -0.81260252073723        0.98661971287693       -1.39145052324514
H           -0.16282498880041        0.14118082499085        1.53386771389951
9
 energy: -19.382491329715 gnorm: 0.001627611823 xtb: 6.7.1 (edcfbbe)
O           -1.85296808872792        1.56944549852521        0.24068524398307
C           -0.98227817501144        0.96571005155692       -0.30237426676417
C            0.02502401522952        0.08089760896939        0.45098112063679
C            1.37457879290547        0.52481182666368        0.16075313288540
N            2.43417727705263        0.88368570561815       -0.06338379436483
C           -0.13295765700651       -1.29144079611203        0.00818024501251
N           -0.26623597385192       -2.36823143172088       -0.34519098358735
H           -0.81276878320964        0.98782374562423       -1.39143681335003
H           -0.16083376708020        0.14042516777533        1.53308861094863
9
 energy: -19.382494177934 gnorm: 0.001014108785 xtb: 6.7.1 (edcfbbe)
O           -1.85210006465976        1.57089129631028        0.24057504582906
C           -0.98016061408976        0.96847975564229       -0.30187369846850
C            0.02488630751968        0.08098161744992        0.45135721635697
C            1.37520080012934        0.52546784348737        0.16573067373357
N            2.43340474221421        0.88324888568010       -0.06645966492863
C           -0.13313325374739       -1.28992112971230        0.00406223571059
N           -0.26474069850740       -2.36865813949752       -0.34358390119106
H           -0.81472151432292        0.98457891334604       -1.39175004806615
H           -0.16289806423602        0.13805833419381        1.53324463642416
9
 energy: -19.382496045723 gnorm: 0.001362086680 xtb: 6.7.1 (edcfbbe)
O           -1.85125101409054        1.57107953815435        0.24013677886276
C           -0.97972786624712        0.96816450884823       -0.30197209167020
C            0.02511845089737        0.08110269864806        0.45188394129650
C            1.37519238310531        0.52523758834581        0.16462728825241
N            2.43364514860139        0.88345015944888       -0.06509104409904
C           -0.13256064644860       -1.29111905118765        0.00874053892714
N           -0.26599655691227       -2.36602130761832       -0.34860049324251
H           -0.81651828066599        0.98111196565964       -1.39216657126173
H           -0.16216397793957        0.14012127660099        1.53374414833469
9
 energy: -19.382496963474 gnorm: 0.000692898148 xtb: 6.7.1 (edcfbbe)
O           -1.84972800988196        1.57323884010575        0.24023196210424
C           -0.98096473315269        0.96649461060519       -0.30223283263990
C            0.02451889873943        0.08044786815957        0.45201270936769
C            1.37460170153109        0.52553135953886        0.16597597434774
N            2.43232893330712        0.88403060505883       -0.06713757451516
C           -0.13232637484269       -1.29168009689023        0.00833447430450
N           -0.26477195171764       -2.36733687613541       -0.34783919955885
H           -0.81472564988275        0.98303634837899       -1.39183852154045
H           -0.16319517379993        0.13936471807845        1.53379550353021
9
 energy: -19.382498299379 gnorm: 0.000985207531 xtb: 6.7.1 (edcfbbe)
O           -1.84800805563923        1.57562931518020        0.24109797383694
C           -0.98043818409059        0.96758452766455       -0.30203530919308
C            0.02459095777440        0.08025097485229        0.45141369418687
C            1.37446020573250        0.52535899046298        0.16443206971168
N            2.43273939614219        0.88544206408115       -0.06397016838773
C           -0.13272796578637       -1.29128835825269        0.00596325133920
N           -0.26461400316221       -2.36850463448260       -0.34661416090185
H           -0.81762982756879        0.98023417477810       -1.39231653134542
H           -0.16263488310191        0.13842032261602        1.53333167615341
9
 energy: -19.382499265613 gnorm: 0.000283735398 xtb: 6.7.1 (edcfbbe)
O           -1.84675406494231        1.57698691522708        0.24104298153473
C           -0.98014485658908        0.96767521401406       -0.30204005850549
C            0.02444407713741        0.08006472338648        0.45162831886121
C            1.37435154530129        0.52548926046388        0.16531215561895
N            2.43223907295523        0.88562159816117       -0.06435851395289
C           -0.13242592327842       -1.29160213603018        0.00657696301613
N           -0.26427184836952       -2.36790332237023       -0.34783017696289
H           -0.81861125661755        0.97846545247472       -1.39251588343862
H           -0.16308910529706        0.13832967157301        1.53348670922888
9
 energy: -19.382499976935 gnorm: 0.000196738790 xtb: 6.7.1 (edcfbbe)
O           -1.84394816639485        1.58042610228694        0.24135495560388
C           -0.98002954299924        0.96761562679258       -0.30206732469359
C            0.02407415410281        0.07956354503198        0.45171341445311
C            1.37391563223512        0.52570735951592        0.16603226404215
N            2.43146888111364        0.88659016477774       -0.06407218668635
C           -0.13203519567301       -1.29216102929962        0.00668541533809
N           -0.26344678515044       -2.36811880034179       -0.34901407794163
H           -0.82053272558546        0.97567314853561       -1.39285255590950
H           -0.16372861134859        0.13783125960064        1.53352259119386
9
 energy: -19.382501500641 gnorm: 0.000619276295 xtb: 6.7.1 (edcfbbe)
O           -1.83372696093108        1.59308619584157        0.24281152574818
C           -0.97971751792773        0.96761811676874       -0.30210967491029
C            0.02279978979785        0.07773861920762        0.45164260058943
C            1.37228929577820        0.52640427511249        0.16772116353101
N            2.42892060928562        0.89025395324471       -0.06177672962544
C           -0.13087356584208       -1.29376789985651        0.00550578064971
N           -0.26032853100471       -2.36933957090848       -0.35177208692850
H           -0.82797254165668        0.96566269804070       -1.39409278469514
H           -0.16565293719941        0.13547098944916        1.53337270104106
9
 energy: -19.382502204068 gnorm: 0.000276686955 xtb: 6.7.1 (edcfbbe)
O           -1.82571838895888        1.60281480569919        0.24382584213786
C           -0.97947855568118        0.96779808386648       -0.30207366593214
C            0.02180983744897        0.07646734505755        0.45153794790327
C            1.37098842568010        0.52705551493327        0.16872688743310
N            2.42725616522636        0.89287125848645       -0.05952352336663
C           -0.12995101307017       -1.29480299317060        0.00420660041458
N           -0.25788103167289       -2.37049967987067       -0.35372794339762
H           -0.83425636313823        0.95776380605035       -1.39490115255377
H           -0.16703143553410        0.13365923584800        1.53323150276137
9
 energy: -19.382502391856 gnorm: 0.000141276862 xtb: 6.7.1 (edcfbbe)
O           -1.82375125333262        1.60529368911255        0.24403840974152
C           -0.97959377373359        0.96786960382040       -0.30204802738998
C            0.02156501618438        0.07621431531232        0.45139291266090
C            1.37063330576238        0.52730326457021        0.16877503967442
N            2.42705250628488        0.89316955752727       -0.05861397618431
C           -0.12960917055058       -1.29492977016516        0.00355311374666
N           -0.25710142245318       -2.37082014776056       -0.35390665463966
H           -0.83616447037956        0.95587965029210       -1.39498103264075
H           -0.16729309748214        0.13314721419088        1.53309271043121
9
 energy: -19.382502475265 gnorm: 0.000084269702 xtb: 6.7.1 (edcfbbe)
O           -1.82223904311932        1.60740776175557        0.24427841440002
C           -0.97972133951856        0.96794451678390       -0.30203130445790
C            0.02136875935191        0.07607217080002        0.45131501620154
C            1.37035566673983        0.52760771033184        0.16892150828548
N            2.42701906931434        0.89315325676014       -0.05787512986213
C           -0.12921183341879       -1.29500913410023        0.00312359731595
N           -0.25641435304271       -2.37096676853258       -0.35428341071524
H           -0.83788777329207        0.95409228474293       -1.39516256707248
H           -0.16753151271465        0.13282557835840        1.53301637130479
