      -----------------------------------------------------------      
     |                   =====================                   |     
     |                           x T B                           |     
     |                   =====================                   |     
     |                         S. Grimme                         |     
     |          Mulliken Center for Theoretical Chemistry        |     
     |                    University of Bonn                     |     
      -----------------------------------------------------------      

   * xtb version 6.7.0 (08769fc) compiled by 'albert@albert-system' on 2024-03-04

   xtb is free software: you can redistribute it and/or modify it under
   the terms of the GNU Lesser General Public License as published by
   the Free Software Foundation, either version 3 of the License, or
   (at your option) any later version.
   
   xtb is distributed in the hope that it will be useful,
   but WITHOUT ANY WARRANTY; without even the implied warranty of
   MERCHANTABILITY or FITNESS FOR A PARTICULAR PURPOSE.  See the
   GNU Lesser General Public License for more details.
   
   Cite this work as:
   * C. Bannwarth, E. Caldeweyher, S. Ehlert, A. Hansen, P. Pracht,
     J. Seibert, S. Spicher, S. Grimme, WIREs Comput. Mol. Sci., 2020, 11,
     e01493. DOI: 10.1002/wcms.1493
   
   for GFN2-xTB:
   * C. Bannwarth, S. Ehlert and S. Grimme., J. Chem. Theory Comput., 2019,
     15, 1652-1671. DOI: 10.1021/acs.jctc.8b01176
   for GFN1-xTB:
   * S. Grimme, C. Bannwarth, P. Shushkov, J. Chem. Theory Comput., 2017,
     13, 1989-2009. DOI: 10.1021/acs.jctc.7b00118
   for GFN0-xTB:
   * P. Pracht, E. Caldeweyher, S. Ehlert, S. Grimme, ChemRxiv, 2019, preprint.
     DOI: 10.26434/chemrxiv.8326202.v1
   for GFN-FF:
   * S. Spicher and S. Grimme, Angew. Chem. Int. Ed., 2020, 59, 15665-15673.
     DOI: 10.1002/anie.202004239
   
   for ALPB and GBSA implicit solvation:
   * S. Ehlert, M. Stahn, S. Spicher, S. Grimme, J. Chem. Theory Comput.,
     2021, 17, 4250-4261. DOI: 10.1021/acs.jctc.1c00471
   
   for ddCOSMO and CPCM-X implicit solvation:
   * M. Stahn, S. Ehlert, S. Grimme, J. Phys. Chem. A,
     2023, XX, XXXX-XXXX. DOI: 10.1021/acs.jpca.3c04382
   
   for DFT-D4:
   * E. Caldeweyher, C. Bannwarth and S. Grimme, J. Chem. Phys., 2017,
     147, 034112. DOI: 10.1063/1.4993215
   * E. Caldeweyher, S. Ehlert, A. Hansen, H. Neugebauer, S. Spicher,
     C. Bannwarth and S. Grimme, J. Chem. Phys., 2019, 150, 154122.
     DOI: 10.1063/1.5090222
   * E. Caldeweyher, J.-M. Mewes, S. Ehlert and S. Grimme, Phys. Chem. Chem. Phys.
     2020, 22, 8499-8512. DOI: 10.1039/D0CP00502A
   
   for sTDA-xTB:
   * S. Grimme and C. Bannwarth, J. Chem. Phys., 2016, 145, 054103.
     DOI: 10.1063/1.4959605
   
   in the mass-spec context:
   * V. Asgeirsson, C. Bauer and S. Grimme, Chem. Sci., 2017, 8, 4879.
     DOI: 10.1039/c7sc00601b
   * J. Koopman and S. Grimme, ACS Omega 2019, 4, 12, 15120-15133.
     DOI: 10.1021/acsomega.9b02011
   
   for metadynamics refer to:
   * S. Grimme, J. Chem. Theory Comput., 2019, 155, 2847-2862
     DOI: 10.1021/acs.jctc.9b00143
   
   for SPH calculations refer to:
   * S. Spicher and S. Grimme, J. Chem. Theory Comput., 2021, 17, 1701-1714
     DOI: 10.1021/acs.jctc.0c01306
   
   for ONIOM refer to:
   * C. Plett, A. Katbashev, S. Ehlert, S. Grimme, M. Bursch,
     Phys. Chem. Chem. Phys., 2023, 25, 17860-17868. DOI: 10.1039/D3CP02178E
   
   for DIPRO refer to:
   * J. Kohn, N. Gildemeister, S. Grimme, D. Fazzi, A. Hansen,
     J. Chem. Phys., 2023, just accepted.
   
   for PTB refer to:
   * S. Grimme, M. Mueller, A. Hansen, J. Chem. Phys., 2023, 158, 124111.
     DOI: 10.1063/5.0137838
   
   with help from (in alphabetical order)
   P. Atkinson, C. Bannwarth, F. Bohle, G. Brandenburg, E. Caldeweyher
   M. Checinski, S. Dohm, S. Ehlert, S. Ehrlich, I. Gerasimov, C. Hölzer
   A. Katbashev, J. Kohn, J. Koopman, C. Lavigne, S. Lehtola, F. März, M. Müller,
   F. Musil, H. Neugebauer, J. Pisarek, C. Plett, P. Pracht, F. Pultar,
   J. Seibert, P. Shushkov, S. Spicher, M. Stahn, M. Steiner, T. Strunk,
   J. Stückrath, T. Rose, and J. Unsleber
   
 * started run on 2024/08/07 at 19:38:44.233     
   ID    Z sym.   atoms
    1    6 C      1-3
    2    8 O      4
    3    1 H      5-10

           -------------------------------------------------
          |                Calculation Setup                |
           -------------------------------------------------

          program call               : /home/mvotokps/xtb-dist/bin/xtb crest_best.xyz --gfn 2 --alpb toluene --opt vtight -c 0 --iterations 4000
          coordinate file            : crest_best.xyz
          omp threads                :                     8


           -------------------------------------------------
          |                 G F N 2 - x T B                 |
           -------------------------------------------------

        Reference                      10.1021/acs.jctc.8b01176
      * Hamiltonian:
        H0-scaling (s, p, d)           1.850000    2.230000    2.230000
        zeta-weighting                 0.500000
      * Dispersion:
        s8                             2.700000
        a1                             0.520000
        a2                             5.000000
        s9                             5.000000
      * Repulsion:
        kExp                           1.500000    1.000000
        rExp                           1.000000
      * Coulomb:
        alpha                          2.000000
        third order                    shell-resolved
        anisotropic                    true
        a3                             3.000000
        a5                             4.000000
        cn-shift                       1.200000
        cn-exp                         4.000000
        max-rad                        5.000000

      * Solvation model:               ALPB
        Solvent                        toluene
        Parameter file                 internal GFN2-xTB/ALPB
        Dielectric constant                7.0000E+00
        Reference state                gsolv [1 M gas/solution]
        Free energy shift                  2.2081E-03 Eh       1.3856E+00 kcal/mol
        Temperature                        2.9815E+02 K
        Density                            8.6700E-01 kg/L
        Solvent mass                       7.8110E+01 g/mol
        Interaction kernel             P16
        Born radius scaling (c1)           1.7172E+00
        Born radii integrator          GBOBC
        Born offset                        0.0000E+00 a0       0.0000E+00 AA
        H-bond correction              false
        Ion screening                  false
        Surface tension                    1.0000E-05 Eh       1.5569E+01 dyn/cm
        Grid points                               230 per atom

          ...................................................
          :                      SETUP                      :
          :.................................................:
          :  # basis functions                  22          :
          :  # atomic orbitals                  22          :
          :  # shells                           14          :
          :  # electrons                        24          :
          :  max. iterations                  4000          :
          :  Hamiltonian                  GFN2-xTB          :
          :  restarted?                      false          :
          :  GBSA solvation                   true          :
          :  PC potential                    false          :
          :  electronic temp.          300.0000000     K    :
          :  accuracy                    1.0000000          :
          :  -> integral cutoff          0.2500000E+02      :
          :  -> integral neglect         0.1000000E-07      :
          :  -> SCF convergence          0.1000000E-05 Eh   :
          :  -> wf. convergence          0.1000000E-03 e    :
          :  Broyden damping             0.4000000          :
          :  net charge                          0          :
          :  unpaired electrons                  0          :
          ...................................................

 iter      E             dE          RMSdq      gap      omega  full diag
   1    -13.6594956 -0.136595E+02  0.453E+00    4.96       0.0  T
   2    -13.7057827 -0.462871E-01  0.217E+00    3.83       1.0  T
   3    -13.7111825 -0.539977E-02  0.142E+00    4.31       1.0  T
   4    -13.7136365 -0.245400E-02  0.141E-01    4.09       1.0  T
   5    -13.7137063 -0.698792E-04  0.783E-02    4.13       1.0  T
   6    -13.7137099 -0.360202E-05  0.180E-02    4.12       1.8  T
   7    -13.7137103 -0.323696E-06  0.364E-03    4.12       8.7  T
   8    -13.7137102  0.220887E-07  0.272E-03    4.12      11.6  T
   9    -13.7137103 -0.419346E-07  0.352E-04    4.12      89.9  T
  10    -13.7137103 -0.635545E-09  0.180E-04    4.12     175.7  T

   *** convergence criteria satisfied after 10 iterations ***

         #    Occupation            Energy/Eh            Energy/eV
      -------------------------------------------------------------
         1        2.0000           -0.7128496             -19.3976
       ...           ...                  ...                  ...
         6        2.0000           -0.5378478             -14.6356
         7        2.0000           -0.5229259             -14.2295
         8        2.0000           -0.4850554             -13.1990
         9        2.0000           -0.4740112             -12.8985
        10        2.0000           -0.4720263             -12.8445
        11        2.0000           -0.4679174             -12.7327
        12        2.0000           -0.3994583             -10.8698 (HOMO)
        13                         -0.2480556              -6.7499 (LUMO)
        14                          0.0914459               2.4884
        15                          0.1475874               4.0161
        16                          0.1676130               4.5610
        17                          0.1780019               4.8437
       ...                                ...                  ...
        22                          0.6331954              17.2301
      -------------------------------------------------------------
                  HL-Gap            0.1514027 Eh            4.1199 eV
             Fermi-level           -0.3237570 Eh           -8.8099 eV

 SCC (total)                   0 d,  0 h,  0 min,  0.125 sec
 SCC setup                      ...        0 min,  0.000 sec (  0.330%)
 Dispersion                     ...        0 min,  0.000 sec (  0.249%)
 classical contributions        ...        0 min,  0.000 sec (  0.114%)
 integral evaluation            ...        0 min,  0.000 sec (  0.364%)
 iterations                     ...        0 min,  0.110 sec ( 88.184%)
 molecular gradient             ...        0 min,  0.013 sec ( 10.627%)
 printout                       ...        0 min,  0.000 sec (  0.102%)

         :::::::::::::::::::::::::::::::::::::::::::::::::::::
         ::                     SUMMARY                     ::
         :::::::::::::::::::::::::::::::::::::::::::::::::::::
         :: total energy             -13.539015318655 Eh    ::
         :: total w/o Gsasa/hb       -13.534365796581 Eh    ::
         :: gradient norm              0.029403467180 Eh/a0 ::
         :: HOMO-LUMO gap              4.119876276419 eV    ::
         ::.................................................::
         :: SCC energy               -13.713708751852 Eh    ::
         :: -> isotropic ES            0.031733914435 Eh    ::
         :: -> anisotropic ES          0.001607389497 Eh    ::
         :: -> anisotropic XC          0.005392825381 Eh    ::
         :: -> dispersion             -0.003889005021 Eh    ::
         :: -> Gsolv                  -0.007322143254 Eh    ::
         ::    -> Gelec               -0.002672621180 Eh    ::
         ::    -> Gsasa               -0.006857665212 Eh    ::
         ::    -> Ghb                  0.000000000000 Eh    ::
         ::    -> Gshift               0.002208143139 Eh    ::
         :: repulsion energy           0.174693433197 Eh    ::
         :: add. restraining           0.000000000000 Eh    ::
         :: total charge              -0.000000000000 e     ::
         :::::::::::::::::::::::::::::::::::::::::::::::::::::

      ----------------------------------------------------------- 
     |                   =====================                   |
     |                        A N C O P T                        |
     |                   =====================                   |
     |               Approximate Normal Coordinate               |
     |                Rational Function Optimizer                |
      ----------------------------------------------------------- 
      ----------------------------------------------------------- 
     |                   =====================                   |
     |                        A N C O P T                        |
     |                   =====================                   |
     |               Approximate Normal Coordinate               |
     |                Rational Function Optimizer                |
      ----------------------------------------------------------- 

          ...................................................
          :                      SETUP                      :
          :.................................................:
          :   optimization level         verytight          :
          :   max. optcycles                   200          :
          :   ANC micro-cycles                  20          :
          :   degrees of freedom                24          :
          :.................................................:
          :   RF solver                   davidson          :
          :   write xtbopt.log                true          :
          :   linear?                        false          :
          :   energy convergence         0.1000000E-06 Eh   :
          :   grad. convergence          0.2000000E-03 Eh/α :
          :   maxmium RF displ.          1.0000000          :
          :   Hlow (freq-cutoff)         0.1000000E-01      :
          :   Hmax (freq-cutoff)         5.0000000          :
          :   S6 in model hess.         20.0000000          :
          ...................................................

generating ANC from model Hessian ...
Using Lindh-Hessian (1995)
 Shifting diagonal of input Hessian by   8.692042819888855E-005
 Lowest  eigenvalues of input Hessian
    0.000000    0.000000    0.000000    0.000000    0.000000    0.000000
    0.010000    0.010899    0.020680    0.050291    0.061523    0.063671
    0.065857    0.092360    0.118269    0.124075    0.130561    0.130661
 Highest eigenvalues
    1.103688    1.113933    1.130648    1.158330    1.470909    2.171973
 

........................................................................
.............................. CYCLE    1 ..............................
........................................................................

 iter      E             dE          RMSdq      gap      omega  full diag
   1    -13.7137103 -0.137137E+02  0.105E-05    4.12       0.0  T
   2    -13.7137103 -0.124345E-13  0.604E-06    4.12    5231.6  T
   3    -13.7137103 -0.142109E-13  0.619E-07    4.12   51119.7  T
     SCC iter.                  ...        0 min,  0.110 sec
     gradient                   ...        0 min,  0.002 sec
 * total energy  :   -13.5390153 Eh     change       -0.1905729E-09 Eh
   gradient norm :     0.0294031 Eh/α   predicted     0.0000000E+00 (-100.00%)
   displ. norm   :     0.1525451 α      lambda       -0.2061579E-02
   maximum displ.:     0.1081021 α      in ANC's #3, #2, #12, ...

........................................................................
.............................. CYCLE    2 ..............................
........................................................................

 iter      E             dE          RMSdq      gap      omega  full diag
   1    -13.7105920 -0.137106E+02  0.216E-01    4.06       0.0  T
   2    -13.7106008 -0.880689E-05  0.129E-01    4.07       1.0  T
   3    -13.7105930  0.778584E-05  0.415E-02    4.06       1.0  T
   4    -13.7106041 -0.110891E-04  0.624E-03    4.07       5.1  T
   5    -13.7106041 -0.310689E-07  0.176E-03    4.07      18.0  T
   6    -13.7106041 -0.184466E-08  0.563E-04    4.07      56.2  T
   7    -13.7106041 -0.197121E-09  0.167E-04    4.07     189.7  T
     SCC iter.                  ...        0 min,  0.135 sec
     gradient                   ...        0 min,  0.001 sec
 * total energy  :   -13.5402588 Eh     change       -0.1243447E-02 Eh
   gradient norm :     0.0107095 Eh/α   predicted    -0.1054776E-02 ( -15.17%)
   displ. norm   :     0.1330018 α      lambda       -0.3643942E-03
   maximum displ.:     0.1054675 α      in ANC's #2, #3, #7, ...

........................................................................
.............................. CYCLE    3 ..............................
........................................................................

 iter      E             dE          RMSdq      gap      omega  full diag
   1    -13.7103129 -0.137103E+02  0.835E-02    4.07       0.0  T
   2    -13.7103157 -0.278416E-05  0.494E-02    4.08       1.0  T
   3    -13.7103150  0.650793E-06  0.174E-02    4.07       1.8  T
   4    -13.7103163 -0.124538E-05  0.329E-03    4.07       9.6  T
   5    -13.7103163 -0.309065E-07  0.129E-03    4.07      24.4  T
   6    -13.7103163 -0.913170E-09  0.419E-04    4.07      75.4  T
   7    -13.7103163 -0.206235E-09  0.909E-05    4.07     347.9  T
     SCC iter.                  ...        0 min,  0.128 sec
     gradient                   ...        0 min,  0.003 sec
 * total energy  :   -13.5405128 Eh     change       -0.2540611E-03 Eh
   gradient norm :     0.0049708 Eh/α   predicted    -0.1854181E-03 ( -27.02%)
   displ. norm   :     0.1585620 α      lambda       -0.1941064E-03
   maximum displ.:     0.1478503 α      in ANC's #2, #3, #7, ...

........................................................................
.............................. CYCLE    4 ..............................
........................................................................

 iter      E             dE          RMSdq      gap      omega  full diag
   1    -13.7105043 -0.137105E+02  0.692E-02    4.09       0.0  T
   2    -13.7105062 -0.193005E-05  0.406E-02    4.09       1.0  T
   3    -13.7105060  0.167504E-06  0.114E-02    4.09       2.8  T
   4    -13.7105064 -0.373476E-06  0.320E-03    4.09       9.9  T
   5    -13.7105064 -0.418075E-07  0.957E-04    4.09      33.1  T
   6    -13.7105064 -0.825437E-09  0.288E-04    4.09     109.7  T
     SCC iter.                  ...        0 min,  0.198 sec
     gradient                   ...        0 min,  0.005 sec
 * total energy  :   -13.5406627 Eh     change       -0.1498919E-03 Eh
   gradient norm :     0.0042574 Eh/α   predicted    -0.9949362E-04 ( -33.62%)
   displ. norm   :     0.1165976 α      lambda       -0.1181583E-03
   maximum displ.:     0.1134695 α      in ANC's #2, #3, #7, ...

........................................................................
.............................. CYCLE    5 ..............................
........................................................................

 iter      E             dE          RMSdq      gap      omega  full diag
   1    -13.7111456 -0.137111E+02  0.426E-02    4.10       0.0  T
   2    -13.7111461 -0.486687E-06  0.252E-02    4.10       1.3  T
   3    -13.7111461 -0.233991E-07  0.380E-03    4.10       8.3  T
   4    -13.7111462 -0.105528E-07  0.981E-04    4.10      32.2  T
   5    -13.7111462 -0.730385E-09  0.379E-04    4.10      83.4  T
     SCC iter.                  ...        0 min,  0.147 sec
     gradient                   ...        0 min,  0.001 sec
 * total energy  :   -13.5407689 Eh     change       -0.1061514E-03 Eh
   gradient norm :     0.0045036 Eh/α   predicted    -0.5988144E-04 ( -43.59%)
   displ. norm   :     0.1151050 α      lambda       -0.1225446E-03
   maximum displ.:     0.1136436 α      in ANC's #2, #16, #3, ...

........................................................................
.............................. CYCLE    6 ..............................
........................................................................

 iter      E             dE          RMSdq      gap      omega  full diag
   1    -13.7118700 -0.137119E+02  0.392E-02    4.10       0.0  T
   2    -13.7118701 -0.117578E-06  0.236E-02    4.10       1.3  T
   3    -13.7118701  0.363417E-07  0.301E-03    4.10      10.5  T
   4    -13.7118702 -0.612953E-07  0.738E-04    4.10      42.9  T
   5    -13.7118702 -0.912943E-09  0.377E-04    4.10      83.9  T
     SCC iter.                  ...        0 min,  0.114 sec
     gradient                   ...        0 min,  0.004 sec
 * total energy  :   -13.5408796 Eh     change       -0.1107452E-03 Eh
   gradient norm :     0.0034519 Eh/α   predicted    -0.6208515E-04 ( -43.94%)
   displ. norm   :     0.1365993 α      lambda       -0.1243398E-03
   maximum displ.:     0.1350181 α      in ANC's #2, #16, #1, ...

........................................................................
.............................. CYCLE    7 ..............................
........................................................................

 iter      E             dE          RMSdq      gap      omega  full diag
   1    -13.7119427 -0.137119E+02  0.454E-02    4.10       0.0  T
   2    -13.7119428 -0.104905E-06  0.275E-02    4.10       1.2  T
   3    -13.7119428  0.120682E-07  0.238E-03    4.10      13.3  T
   4    -13.7119428 -0.377863E-07  0.843E-04    4.10      37.5  T
   5    -13.7119428 -0.160087E-08  0.321E-04    4.10      98.6  T
     SCC iter.                  ...        0 min,  0.094 sec
     gradient                   ...        0 min,  0.003 sec
 * total energy  :   -13.5409907 Eh     change       -0.1110658E-03 Eh
   gradient norm :     0.0021340 Eh/α   predicted    -0.6332999E-04 ( -42.98%)
   displ. norm   :     0.1480827 α      lambda       -0.1103926E-03
   maximum displ.:     0.1461333 α      in ANC's #2, #16, #9, ...

........................................................................
.............................. CYCLE    8 ..............................
........................................................................

 iter      E             dE          RMSdq      gap      omega  full diag
   1    -13.7117349 -0.137117E+02  0.498E-02    4.09       0.0  T
   2    -13.7117351 -0.121546E-06  0.301E-02    4.09       1.1  T
   3    -13.7117351 -0.239708E-07  0.145E-03    4.09      21.8  T
   4    -13.7117351 -0.246303E-08  0.696E-04    4.09      45.5  T
   5    -13.7117351 -0.239346E-09  0.127E-04    4.09     249.5  T
     SCC iter.                  ...        0 min,  0.112 sec
     gradient                   ...        0 min,  0.003 sec
 * total energy  :   -13.5410874 Eh     change       -0.9672046E-04 Eh
   gradient norm :     0.0022169 Eh/α   predicted    -0.5640667E-04 ( -41.68%)
   displ. norm   :     0.2074325 α      lambda       -0.1255084E-03
   maximum displ.:     0.2039404 α      in ANC's #2, #16, #18, ...

........................................................................
.............................. CYCLE    9 ..............................
........................................................................

 iter      E             dE          RMSdq      gap      omega  full diag
   1    -13.7111092 -0.137111E+02  0.706E-02    4.09       0.0  T
   2    -13.7111094 -0.190825E-06  0.425E-02    4.09       1.0  T
   3    -13.7111094 -0.138558E-07  0.282E-03    4.09      11.2  T
   4    -13.7111094 -0.403414E-07  0.123E-03    4.09      25.6  T
   5    -13.7111094 -0.236308E-08  0.504E-04    4.09      62.7  T
   6    -13.7111094 -0.266638E-09  0.995E-05    4.09     317.9  T
     SCC iter.                  ...        0 min,  0.105 sec
     gradient                   ...        0 min,  0.001 sec
 * total energy  :   -13.5411844 Eh     change       -0.9704332E-04 Eh
   gradient norm :     0.0038948 Eh/α   predicted    -0.6545358E-04 ( -32.55%)
   displ. norm   :     0.2621651 α      lambda       -0.1156404E-03
   maximum displ.:     0.2545101 α      in ANC's #2, #16, #1, ...

........................................................................
.............................. CYCLE   10 ..............................
........................................................................

 iter      E             dE          RMSdq      gap      omega  full diag
   1    -13.7101622 -0.137102E+02  0.898E-02    4.08       0.0  T
   2    -13.7101626 -0.369202E-06  0.540E-02    4.08       1.0  T
   3    -13.7101626  0.353687E-07  0.466E-03    4.08       6.8  T
   4    -13.7101627 -0.140935E-06  0.180E-03    4.08      17.6  T
   5    -13.7101627 -0.585777E-08  0.610E-04    4.08      51.9  T
   6    -13.7101627 -0.254873E-09  0.191E-04    4.08     165.2  T
     SCC iter.                  ...        0 min,  0.092 sec
     gradient                   ...        0 min,  0.001 sec
 * total energy  :   -13.5412481 Eh     change       -0.6364234E-04 Eh
   gradient norm :     0.0060795 Eh/α   predicted    -0.6179181E-04 (  -2.91%)
   displ. norm   :     0.0903569 α      lambda       -0.8199875E-04
   maximum displ.:     0.0822191 α      in ANC's #2, #16, #1, ...

........................................................................
.............................. CYCLE   11 ..............................
........................................................................

 iter      E             dE          RMSdq      gap      omega  full diag
   1    -13.7118542 -0.137119E+02  0.378E-02    4.09       0.0  T
   2    -13.7118550 -0.776097E-06  0.218E-02    4.09       1.5  T
   3    -13.7118550 -0.171751E-07  0.575E-03    4.08       5.5  T
   4    -13.7118550 -0.215337E-07  0.109E-03    4.09      29.1  T
   5    -13.7118550 -0.307647E-08  0.629E-04    4.08      50.3  T
   6    -13.7118550 -0.511070E-09  0.144E-04    4.08     219.2  T
     SCC iter.                  ...        0 min,  0.091 sec
     gradient                   ...        0 min,  0.001 sec
 * total energy  :   -13.5412966 Eh     change       -0.4852889E-04 Eh
   gradient norm :     0.0029679 Eh/α   predicted    -0.4133479E-04 ( -14.82%)
   displ. norm   :     0.1369949 α      lambda       -0.4974625E-04
   maximum displ.:     0.1252010 α      in ANC's #2, #16, #1, ...

........................................................................
.............................. CYCLE   12 ..............................
........................................................................

 iter      E             dE          RMSdq      gap      omega  full diag
   1    -13.7126672 -0.137127E+02  0.495E-02    4.09       0.0  T
   2    -13.7126679 -0.693603E-06  0.293E-02    4.09       1.1  T
   3    -13.7126679  0.136508E-07  0.557E-03    4.09       5.7  T
   4    -13.7126679 -0.600441E-07  0.139E-03    4.09      22.7  T
   5    -13.7126680 -0.770133E-08  0.631E-04    4.09      50.1  T
   6    -13.7126680 -0.201775E-09  0.128E-04    4.09     247.9  T
     SCC iter.                  ...        0 min,  0.101 sec
     gradient                   ...        0 min,  0.002 sec
 * total energy  :   -13.5413229 Eh     change       -0.2629646E-04 Eh
   gradient norm :     0.0020003 Eh/α   predicted    -0.2533888E-04 (  -3.64%)
   displ. norm   :     0.2135997 α      lambda       -0.3455203E-04
   maximum displ.:     0.2049739 α      in ANC's #2, #16, #18, ...

........................................................................
.............................. CYCLE   13 ..............................
........................................................................

 iter      E             dE          RMSdq      gap      omega  full diag
   1    -13.7108356 -0.137108E+02  0.769E-02    4.08       0.0  T
   2    -13.7108363 -0.670543E-06  0.460E-02    4.08       1.0  T
   3    -13.7108363  0.464836E-08  0.534E-03    4.08       5.9  T
   4    -13.7108364 -0.131736E-06  0.249E-03    4.08      12.7  T
   5    -13.7108364 -0.204554E-07  0.610E-04    4.08      51.9  T
   6    -13.7108364 -0.219483E-09  0.280E-04    4.08     112.9  T
     SCC iter.                  ...        0 min,  0.132 sec
     gradient                   ...        0 min,  0.001 sec
 * total energy  :   -13.5413168 Eh     change        0.6086745E-05 Eh
   gradient norm :     0.0044950 Eh/α   predicted    -0.1806644E-04 (-396.82%)
   displ. norm   :     0.1010948 α      lambda       -0.5181820E-04
   maximum displ.:     0.0982179 α      in ANC's #2, #16, #1, ...

........................................................................
.............................. CYCLE   14 ..............................
........................................................................

 iter      E             dE          RMSdq      gap      omega  full diag
   1    -13.7127841 -0.137128E+02  0.419E-02    4.09       0.0  T
   2    -13.7127846 -0.494956E-06  0.245E-02    4.09       1.3  T
   3    -13.7127846 -0.221534E-07  0.419E-03    4.09       7.5  T
   4    -13.7127847 -0.280672E-07  0.146E-03    4.09      21.6  T
   5    -13.7127847 -0.530949E-08  0.602E-04    4.09      52.5  T
   6    -13.7127847 -0.765839E-09  0.220E-04    4.09     144.0  T
     SCC iter.                  ...        0 min,  0.098 sec
     gradient                   ...        0 min,  0.001 sec
 * total energy  :   -13.5413377 Eh     change       -0.2084692E-04 Eh
   gradient norm :     0.0005314 Eh/α   predicted    -0.2617552E-04 (  25.56%)
   displ. norm   :     0.0668068 α      lambda       -0.3519679E-05
   maximum displ.:     0.0622682 α      in ANC's #2, #16, #1, ...

........................................................................
.............................. CYCLE   15 ..............................
........................................................................

 iter      E             dE          RMSdq      gap      omega  full diag
   1    -13.7126348 -0.137126E+02  0.232E-02    4.09       0.0  T
   2    -13.7126348 -0.380276E-07  0.139E-02    4.09       2.3  T
   3    -13.7126348  0.286256E-08  0.134E-03    4.09      23.6  T
   4    -13.7126348 -0.102309E-07  0.526E-04    4.09      60.1  T
   5    -13.7126348 -0.779128E-09  0.187E-04    4.09     168.9  T
     SCC iter.                  ...        0 min,  0.092 sec
     gradient                   ...        0 min,  0.001 sec
 * total energy  :   -13.5413414 Eh     change       -0.3679746E-05 Eh
   gradient norm :     0.0006757 Eh/α   predicted    -0.1763458E-05 ( -52.08%)
   displ. norm   :     0.1062720 α      lambda       -0.3472808E-05
   maximum displ.:     0.0994319 α      in ANC's #2, #16, #18, ...

........................................................................
.............................. CYCLE   16 ..............................
........................................................................

 iter      E             dE          RMSdq      gap      omega  full diag
   1    -13.7124219 -0.137124E+02  0.364E-02    4.09       0.0  T
   2    -13.7124220 -0.690939E-07  0.219E-02    4.09       1.4  T
   3    -13.7124220  0.275760E-08  0.188E-03    4.08      16.8  T
   4    -13.7124220 -0.204239E-07  0.794E-04    4.09      39.8  T
   5    -13.7124220 -0.156472E-08  0.235E-04    4.09     134.6  T
     SCC iter.                  ...        0 min,  0.094 sec
     gradient                   ...        0 min,  0.001 sec
 * total energy  :   -13.5413434 Eh     change       -0.2044343E-05 Eh
   gradient norm :     0.0009405 Eh/α   predicted    -0.1746334E-05 ( -14.58%)
   displ. norm   :     0.0068134 α      lambda       -0.1736742E-05
   maximum displ.:     0.0041572 α      in ANC's #1, #16, #3, ...

........................................................................
.............................. CYCLE   17 ..............................
........................................................................

 iter      E             dE          RMSdq      gap      omega  full diag
   1    -13.7127931 -0.137128E+02  0.591E-03    4.09       0.0  T
   2    -13.7127931 -0.169990E-07  0.337E-03    4.09       9.4  T
   3    -13.7127931 -0.150093E-08  0.789E-04    4.09      40.1  T
   4    -13.7127931 -0.728535E-09  0.313E-04    4.09     100.9  T
     SCC iter.                  ...        0 min,  0.094 sec
     gradient                   ...        0 min,  0.001 sec
 * total energy  :   -13.5413447 Eh     change       -0.1333943E-05 Eh
   gradient norm :     0.0004178 Eh/α   predicted    -0.8671484E-06 ( -34.99%)
   displ. norm   :     0.0194853 α      lambda       -0.2978280E-06
   maximum displ.:     0.0177294 α      in ANC's #2, #16, #1, ...

........................................................................
.............................. CYCLE   18 ..............................
........................................................................

 iter      E             dE          RMSdq      gap      omega  full diag
   1    -13.7127748 -0.137128E+02  0.703E-03    4.08       0.0  T
   2    -13.7127748 -0.233648E-08  0.424E-03    4.08       7.5  T
   3    -13.7127748 -0.414857E-09  0.225E-04    4.08     140.6  T
   4    -13.7127748 -0.106033E-09  0.116E-04    4.08     273.4  T
     SCC iter.                  ...        0 min,  0.174 sec
     gradient                   ...        0 min,  0.002 sec
 * total energy  :   -13.5413451 Eh     change       -0.3310756E-06 Eh
   gradient norm :     0.0002613 Eh/α   predicted    -0.1477811E-06 ( -55.36%)
   displ. norm   :     0.0201560 α      lambda       -0.2536495E-06
   maximum displ.:     0.0178700 α      in ANC's #2, #16, #1, ...

........................................................................
.............................. CYCLE   19 ..............................
........................................................................

 iter      E             dE          RMSdq      gap      omega  full diag
   1    -13.7127798 -0.137128E+02  0.761E-03    4.08       0.0  T
   2    -13.7127798 -0.168118E-08  0.457E-03    4.08       6.9  T
   3    -13.7127798 -0.537963E-09  0.216E-04    4.08     146.4  T
   4    -13.7127798 -0.600018E-10  0.118E-04    4.08     267.7  T
     SCC iter.                  ...        0 min,  0.101 sec
     gradient                   ...        0 min,  0.001 sec
 * total energy  :   -13.5413453 Eh     change       -0.2265719E-06 Eh
   gradient norm :     0.0001890 Eh/α   predicted    -0.1269166E-06 ( -43.98%)
   displ. norm   :     0.0075396 α      lambda       -0.1254392E-06
   maximum displ.:     0.0052358 α      in ANC's #2, #1, #4, ...

........................................................................
.............................. CYCLE   20 ..............................
........................................................................

 iter      E             dE          RMSdq      gap      omega  full diag
   1    -13.7127953 -0.137128E+02  0.386E-03    4.08       0.0  T
   2    -13.7127953 -0.698755E-09  0.229E-03    4.08      13.8  T
   3    -13.7127953 -0.277677E-09  0.150E-04    4.08     210.8  T
   4    -13.7127953 -0.140457E-10  0.747E-05    4.08     423.1  T
     SCC iter.                  ...        0 min,  0.093 sec
     gradient                   ...        0 min,  0.001 sec
 * total energy  :   -13.5413454 Eh     change       -0.1397339E-06 Eh
   gradient norm :     0.0002116 Eh/α   predicted    -0.6132282E-07 ( -56.11%)
   displ. norm   :     0.0170926 α      lambda       -0.3154531E-06
   maximum displ.:     0.0125555 α      in ANC's #1, #2, #4, ...
 * RMSD in coord.:     0.5931014 α      energy gain  -0.2330110E-02 Eh

generating ANC from model Hessian ...
Using Lindh-Hessian (1995)
 Shifting diagonal of input Hessian by   1.039734362077462E-003
 Lowest  eigenvalues of input Hessian
    0.000000    0.000000    0.000000    0.000000    0.000000    0.000000
    0.010000    0.011393    0.020160    0.049674    0.061363    0.061502
    0.063825    0.086752    0.118988    0.127856    0.133669    0.133881
 Highest eigenvalues
    1.106530    1.112459    1.139903    1.176541    1.396044    2.146789
 

........................................................................
.............................. CYCLE   21 ..............................
........................................................................

 iter      E             dE          RMSdq      gap      omega  full diag
   1    -13.7128079 -0.137128E+02  0.970E-03    4.08       0.0  T
   2    -13.7128079 -0.389697E-08  0.574E-03    4.08       5.5  T
   3    -13.7128079 -0.177996E-08  0.345E-04    4.08      91.6  T
   4    -13.7128079 -0.676561E-10  0.972E-05    4.08     325.2  T
     SCC iter.                  ...        0 min,  0.093 sec
     gradient                   ...        0 min,  0.001 sec
 * total energy  :   -13.5413458 Eh     change       -0.3653075E-06 Eh
   gradient norm :     0.0002616 Eh/α   predicted     0.0000000E+00 (-100.00%)
   displ. norm   :     0.0035289 α      lambda       -0.1930934E-06
   maximum displ.:     0.0025622 α      in ANC's #1, #2, #3, ...

........................................................................
.............................. CYCLE   22 ..............................
........................................................................

 iter      E             dE          RMSdq      gap      omega  full diag
   1    -13.7127602 -0.137128E+02  0.278E-03    4.08       0.0  T
   2    -13.7127602 -0.155736E-08  0.162E-03    4.08      19.5  T
   3    -13.7127602 -0.146088E-10  0.251E-04    4.08     125.9  T
   4    -13.7127602 -0.238105E-09  0.106E-04    4.08     297.2  T
     SCC iter.                  ...        0 min,  0.100 sec
     gradient                   ...        0 min,  0.001 sec
 * total energy  :   -13.5413460 Eh     change       -0.1741290E-06 Eh
   gradient norm :     0.0000841 Eh/α   predicted    -0.9761457E-07 ( -43.94%)
   displ. norm   :     0.0038344 α      lambda       -0.8542485E-07
   maximum displ.:     0.0025491 α      in ANC's #1, #2, #4, ...

........................................................................
.............................. CYCLE   23 ..............................
........................................................................

 iter      E             dE          RMSdq      gap      omega  full diag
   1    -13.7127604 -0.137128E+02  0.245E-03    4.08       0.0  T
   2    -13.7127604 -0.841180E-09  0.146E-03    4.08      21.7  T
   3    -13.7127604  0.204903E-10  0.180E-04    4.08     175.2  T
   4    -13.7127604 -0.156701E-09  0.738E-05    4.08     428.5  T
     SCC iter.                  ...        0 min,  0.099 sec
     gradient                   ...        0 min,  0.001 sec
 * total energy  :   -13.5413461 Eh     change       -0.1039124E-06 Eh
   gradient norm :     0.0000946 Eh/α   predicted    -0.4238663E-07 ( -59.21%)
   displ. norm   :     0.0153120 α      lambda       -0.2521717E-06
   maximum displ.:     0.0115211 α      in ANC's #1, #2, #4, ...

........................................................................
.............................. CYCLE   24 ..............................
........................................................................

 iter      E             dE          RMSdq      gap      omega  full diag
   1    -13.7127671 -0.137128E+02  0.865E-03    4.08       0.0  T
   2    -13.7127671 -0.537937E-08  0.512E-03    4.08       6.2  T
   3    -13.7127671 -0.126135E-08  0.402E-04    4.08      78.6  T
   4    -13.7127671 -0.411472E-09  0.220E-04    4.08     143.5  T
     SCC iter.                  ...        0 min,  0.097 sec
     gradient                   ...        0 min,  0.001 sec
 * total energy  :   -13.5413463 Eh     change       -0.2485785E-06 Eh
   gradient norm :     0.0002887 Eh/α   predicted    -0.1257851E-06 ( -49.40%)
   displ. norm   :     0.0172057 α      lambda       -0.2528333E-06
   maximum displ.:     0.0118281 α      in ANC's #1, #2, #4, ...

........................................................................
.............................. CYCLE   25 ..............................
........................................................................

 iter      E             dE          RMSdq      gap      omega  full diag
   1    -13.7127655 -0.137128E+02  0.106E-02    4.08       0.0  T
   2    -13.7127655 -0.493704E-08  0.628E-03    4.08       5.0  T
   3    -13.7127655 -0.202405E-08  0.383E-04    4.08      82.5  T
   4    -13.7127655 -0.808242E-10  0.148E-04    4.08     213.9  T
     SCC iter.                  ...        0 min,  0.098 sec
     gradient                   ...        0 min,  0.001 sec
 * total energy  :   -13.5413465 Eh     change       -0.2145553E-06 Eh
   gradient norm :     0.0002672 Eh/α   predicted    -0.1250290E-06 ( -41.73%)
   displ. norm   :     0.0096100 α      lambda       -0.1165712E-06
   maximum displ.:     0.0072236 α      in ANC's #1, #2, #4, ...

........................................................................
.............................. CYCLE   26 ..............................
........................................................................

 iter      E             dE          RMSdq      gap      omega  full diag
   1    -13.7127694 -0.137128E+02  0.527E-03    4.08       0.0  T
   2    -13.7127694 -0.334953E-08  0.311E-03    4.08      10.2  T
   3    -13.7127694 -0.180625E-09  0.372E-04    4.08      85.1  T
   4    -13.7127694 -0.572834E-09  0.163E-04    4.08     193.8  T
     SCC iter.                  ...        0 min,  0.099 sec
     gradient                   ...        0 min,  0.001 sec
 * total energy  :   -13.5413466 Eh     change       -0.1096588E-06 Eh
   gradient norm :     0.0001043 Eh/α   predicted    -0.5845768E-07 ( -46.69%)
   displ. norm   :     0.0022973 α      lambda       -0.2258865E-07
   maximum displ.:     0.0016183 α      in ANC's #2, #1, #4, ...

........................................................................
.............................. CYCLE   27 ..............................
........................................................................

 iter      E             dE          RMSdq      gap      omega  full diag
   1    -13.7127742 -0.137128E+02  0.144E-03    4.08       0.0  T
   2    -13.7127742 -0.779984E-09  0.865E-04    4.08      36.5  T
   3    -13.7127742  0.112895E-09  0.225E-04    4.08     140.5  T
     SCC iter.                  ...        0 min,  0.120 sec
     gradient                   ...        0 min,  0.003 sec
 * total energy  :   -13.5413467 Eh     change       -0.1685398E-07 Eh
   gradient norm :     0.0000187 Eh/α   predicted    -0.1118232E-07 ( -33.65%)
   displ. norm   :     0.0005667 α      lambda        0.3559673E-09
   maximum displ.:     0.0003726 α      in ANC's #1, #2, #4, ...

   *** GEOMETRY OPTIMIZATION CONVERGED AFTER 27 ITERATIONS ***

------------------------------------------------------------------------
 total energy gain   :        -0.0023313 Eh       -1.4629 kcal/mol
 total RMSD          :         0.5850593 a0        0.3096 Å
 total power (kW/mol):        -0.2267015 (step)   -1.9540 (real)
------------------------------------------------------------------------

 ANCopt (total)                0 d,  0 h,  0 min,  3.133 sec
 optimizer setup                ...        0 min,  0.000 sec (  0.003%)
 model hessian                  ...        0 min,  0.003 sec (  0.090%)
 ANC generation                 ...        0 min,  0.000 sec (  0.016%)
 coordinate transformation      ...        0 min,  0.000 sec (  0.008%)
 single point calculation       ...        0 min,  3.120 sec ( 99.612%)
 optimization log               ...        0 min,  0.002 sec (  0.057%)
 hessian update                 ...        0 min,  0.003 sec (  0.108%)
 rational function              ...        0 min,  0.002 sec (  0.058%)

================
 final structure:
================
10
 xtb: 6.7.0 (08769fc)
C           -1.26563407524331        0.67642684006196        0.08670882585177
C           -0.00033964814151       -0.13665671548586       -0.01409077024605
C            1.26390400533378        0.68160922804362       -0.08006232396261
O            0.00043212706120       -1.34454036917902       -0.03987149520385
H           -2.10909184928507        0.03676371133430        0.33380967380296
H           -1.45406392348619        1.15082028008073       -0.87532048836093
H           -1.15745151505330        1.45891476820543        0.83341440515556
H            1.45211994484703        1.11420738923987        0.90152027364966
H            1.15449168442414        1.49546013067629       -0.79226487133126
H            2.10806169544324        0.05425584772268       -0.35479736395527
 
 Bond Distances (Angstroems)
 ---------------------------
C1-C2=1.5074         C1-H5=1.0870         C1-H6=1.0891         C1-H7=1.0870         C2-C1=1.5074         C2-C3=1.5074         
C2-O4=1.2082         C3-C2=1.5074         C3-H8=1.0891         C3-H9=1.0870         C3-H10=1.0870        O4-C2=1.2082         
H5-C1=1.0870         H6-C1=1.0891         H7-C1=1.0870         H8-C3=1.0891         H9-C3=1.0870         H10-C3=1.0870        
 C  H  Rav=1.0877 sigma=0.0010  Rmin=1.0870  Rmax=1.0891     6
 C  C  Rav=1.5074 sigma=0.0000  Rmin=1.5074  Rmax=1.5074     2
 O  C  Rav=1.2082 sigma=0.0000  Rmin=1.2082  Rmax=1.2082     1
 
 selected bond angles (degree)
 --------------------
H5-C1-C2=110.43                H6-C1-C2=108.73                H6-C1-H5=108.84                H7-C1-C2=110.53                
H7-C1-H5=110.16                H7-C1-H6=108.09                C3-C2-C1=114.46                O4-C2-C1=122.77                
O4-C2-C3=122.77                H8-C3-C2=108.73                H9-C3-C2=110.53                H9-C3-H8=108.09                
H10-C3-C2=110.43               H10-C3-H8=108.83               H10-C3-H9=110.16               
 
 selected dihedral angles (degree)
 ---------------------------------
C3-C2-C1-H5=191.59            C3-C2-C1-H6= 72.24            C3-C2-C1-H7=313.74            O4-C2-C1-H5= 11.59            
O4-C2-C1-H6=252.24            O4-C2-C1-H7=133.74            H8-C3-C2-C1= 72.27            H8-C3-C2-O4=252.27            
H9-C3-C2-C1=313.78            H9-C3-C2-O4=133.78            H10-C3-C2-C1=191.62           H10-C3-C2-O4= 11.62           
           -------------------------------------------------
          |                Final Singlepoint                |
           -------------------------------------------------

          ...................................................
          :                      SETUP                      :
          :.................................................:
          :  # basis functions                  22          :
          :  # atomic orbitals                  22          :
          :  # shells                           14          :
          :  # electrons                        24          :
          :  max. iterations                  4000          :
          :  Hamiltonian                  GFN2-xTB          :
          :  restarted?                      false          :
          :  GBSA solvation                   true          :
          :  PC potential                    false          :
          :  electronic temp.          300.0000000     K    :
          :  accuracy                    1.0000000          :
          :  -> integral cutoff          0.2500000E+02      :
          :  -> integral neglect         0.1000000E-07      :
          :  -> SCF convergence          0.1000000E-05 Eh   :
          :  -> wf. convergence          0.1000000E-03 e    :
          :  Broyden damping             0.4000000          :
          :  net charge                          0          :
          :  unpaired electrons                  0          :
          ...................................................

 iter      E             dE          RMSdq      gap      omega  full diag
   1    -13.7127742 -0.137128E+02  0.657E-05    4.08       0.0  T
   2    -13.7127742 -0.124523E-10  0.292E-05    4.08    1083.8  T
   3    -13.7127742 -0.362377E-11  0.170E-05    4.08    1854.9  T

   *** convergence criteria satisfied after 3 iterations ***

         #    Occupation            Energy/Eh            Energy/eV
      -------------------------------------------------------------
         1        2.0000           -0.7132176             -19.4076
       ...           ...                  ...                  ...
         6        2.0000           -0.5379525             -14.6384
         7        2.0000           -0.5223404             -14.2136
         8        2.0000           -0.4821753             -13.1207
         9        2.0000           -0.4769054             -12.9773
        10        2.0000           -0.4757109             -12.9448
        11        2.0000           -0.4695740             -12.7778
        12        2.0000           -0.4008979             -10.9090 (HOMO)
        13                         -0.2507855              -6.8242 (LUMO)
        14                          0.0869329               2.3656
        15                          0.1458660               3.9692
        16                          0.1664574               4.5295
        17                          0.1796193               4.8877
       ...                                ...                  ...
        22                          0.6206349              16.8883
      -------------------------------------------------------------
                  HL-Gap            0.1501125 Eh            4.0848 eV
             Fermi-level           -0.3258417 Eh           -8.8666 eV

 SCC (total)                   0 d,  0 h,  0 min,  0.101 sec
 SCC setup                      ...        0 min,  0.000 sec (  0.153%)
 Dispersion                     ...        0 min,  0.000 sec (  0.030%)
 classical contributions        ...        0 min,  0.000 sec (  0.011%)
 integral evaluation            ...        0 min,  0.000 sec (  0.291%)
 iterations                     ...        0 min,  0.100 sec ( 98.630%)
 molecular gradient             ...        0 min,  0.001 sec (  0.740%)
 printout                       ...        0 min,  0.000 sec (  0.095%)

         :::::::::::::::::::::::::::::::::::::::::::::::::::::
         ::                     SUMMARY                     ::
         :::::::::::::::::::::::::::::::::::::::::::::::::::::
         :: total energy             -13.541346661560 Eh    ::
         :: total w/o Gsasa/hb       -13.536668919785 Eh    ::
         :: gradient norm              0.000018489329 Eh/a0 ::
         :: HOMO-LUMO gap              4.084768242896 eV    ::
         ::.................................................::
         :: SCC energy               -13.712772663021 Eh    ::
         :: -> isotropic ES            0.031240271497 Eh    ::
         :: -> anisotropic ES          0.001639786548 Eh    ::
         :: -> anisotropic XC          0.005734543325 Eh    ::
         :: -> dispersion             -0.003899974173 Eh    ::
         :: -> Gsolv                  -0.007491491488 Eh    ::
         ::    -> Gelec               -0.002813749712 Eh    ::
         ::    -> Gsasa               -0.006885884914 Eh    ::
         ::    -> Ghb                  0.000000000000 Eh    ::
         ::    -> Gshift               0.002208143139 Eh    ::
         :: repulsion energy           0.171426001461 Eh    ::
         :: add. restraining           0.000000000000 Eh    ::
         :: total charge               0.000000000000 e     ::
         :::::::::::::::::::::::::::::::::::::::::::::::::::::

           -------------------------------------------------
          |                Property Printout                |
           -------------------------------------------------

    * Orbital Energies and Occupations

         #    Occupation            Energy/Eh            Energy/eV
      -------------------------------------------------------------
         1        2.0000           -0.7132176             -19.4076
         2        2.0000           -0.6415223             -17.4567
         3        2.0000           -0.6193187             -16.8525
         4        2.0000           -0.5721832             -15.5699
         5        2.0000           -0.5469384             -14.8830
         6        2.0000           -0.5379525             -14.6384
         7        2.0000           -0.5223404             -14.2136
         8        2.0000           -0.4821753             -13.1207
         9        2.0000           -0.4769054             -12.9773
        10        2.0000           -0.4757109             -12.9448
        11        2.0000           -0.4695740             -12.7778
        12        2.0000           -0.4008979             -10.9090 (HOMO)
        13                         -0.2507855              -6.8242 (LUMO)
        14                          0.0869329               2.3656
        15                          0.1458660               3.9692
        16                          0.1664574               4.5295
        17                          0.1796193               4.8877
        18                          0.1926728               5.2429
        19                          0.2061904               5.6107
        20                          0.2160136               5.8780
        21                          0.2724568               7.4139
        22                          0.6206349              16.8883
      -------------------------------------------------------------
                  HL-Gap            0.1501125 Eh            4.0848 eV
             Fermi-level           -0.3258417 Eh           -8.8666 eV

     #   Z          covCN         q      C6AA      α(0)
     1   6 C        3.754    -0.142    23.301     6.883
     2   6 C        2.808     0.248    22.841     7.830
     3   6 C        3.754    -0.142    23.301     6.883
     4   8 O        0.857    -0.385    21.390     6.201
     5   1 H        0.925     0.065     2.139     2.287
     6   1 H        0.925     0.075     2.027     2.227
     7   1 H        0.925     0.070     2.083     2.257
     8   1 H        0.925     0.075     2.027     2.226
     9   1 H        0.925     0.070     2.083     2.257
    10   1 H        0.925     0.065     2.139     2.287

 Mol. C6AA /au·bohr⁶  :        764.123819
 Mol. C8AA /au·bohr⁸  :      16430.392949
 Mol. α(0) /au        :         41.338360


Wiberg/Mayer (AO) data.
largest (>0.10) Wiberg bond orders for each atom

 ---------------------------------------------------------------------------
     #   Z sym  total        # sym  WBO       # sym  WBO       # sym  WBO
 ---------------------------------------------------------------------------
     1   6 C    3.994 --     2 C    1.007     5 H    0.983     7 H    0.968
                             6 H    0.954
     2   6 C    3.912 --     4 O    1.851     1 C    1.007     3 C    1.007
     3   6 C    3.994 --     2 C    1.007    10 H    0.983     9 H    0.968
                             8 H    0.954
     4   8 O    2.054 --     2 C    1.851
     5   1 H    0.996 --     1 C    0.983
     6   1 H    0.994 --     1 C    0.954
     7   1 H    0.995 --     1 C    0.968
     8   1 H    0.994 --     3 C    0.954
     9   1 H    0.995 --     3 C    0.968
    10   1 H    0.996 --     3 C    0.983
 ---------------------------------------------------------------------------

Topologies differ in total number of bonds
Writing topology from bond orders to xtbtopo.mol

molecular dipole:
                 x           y           z       tot (Debye)
 q only:       -0.001       1.276       0.027
   full:       -0.001       1.458       0.031       3.706
molecular quadrupole (traceless):
                xx          xy          yy          xz          yz          zz
 q only:        2.427       0.002      -2.680      -0.010      -0.103       0.253
  q+dip:        2.566      -0.000      -3.446       0.100      -0.138       0.879
   full:        2.312      -0.002      -3.874       0.170      -0.162       1.562

           -------------------------------------------------
          |                Geometry Summary                 |
           -------------------------------------------------

      molecular mass/u    :       58.0792571
   center of mass at/Å    :       -0.0004120      -0.0256475      -0.0117185
  moments of inertia/u·Å² :        0.5031453E+02   0.5766947E+02   0.1017454E+03
rotational constants/cm⁻¹ :        0.3350450E+00   0.2923147E+00   0.1656845E+00

 * 7 selected distances

     #   Z          #   Z                                           value/Å
     2   6 C        4   8 O                                       1.2081591 (max)
     1   6 C        5   1 H                                       1.0870368
     1   6 C        6   1 H                                       1.0890618
     1   6 C        7   1 H                                       1.0869960
     3   6 C        8   1 H                                       1.0890689
     3   6 C        9   1 H                                       1.0869945 (min)
     3   6 C       10   1 H                                       1.0870391

 * 2 distinct bonds (by element types)

   Z      Z             #   av. dist./Å        max./Å        min./Å
   1 H    6 C           6     1.0876995     1.0890689     1.0869945
   6 C    8 O           1     1.2081591     1.2081591     1.2081591


optimized geometry written to: xtbopt.xyz


           -------------------------------------------------
          | TOTAL ENERGY              -13.541346661560 Eh   |
          | GRADIENT NORM               0.000018489329 Eh/α |
          | HOMO-LUMO GAP               4.084768242896 eV   |
           -------------------------------------------------

------------------------------------------------------------------------
 * finished run on 2024/08/07 at 19:38:47.610     
------------------------------------------------------------------------
 total:
 * wall-time:     0 d,  0 h,  0 min,  3.376 sec
 *  cpu-time:     0 d,  0 h,  0 min, 23.300 sec
 * ratio c/w:     6.901 speedup
 SCF:
 * wall-time:     0 d,  0 h,  0 min,  0.125 sec
 *  cpu-time:     0 d,  0 h,  0 min,  0.834 sec
 * ratio c/w:     6.649 speedup
 ANC optimizer:
 * wall-time:     0 d,  0 h,  0 min,  3.235 sec
 *  cpu-time:     0 d,  0 h,  0 min, 22.390 sec
 * ratio c/w:     6.921 speedup

