10
 energy: -13.539015318845 gnorm: 0.029403086666 xtb: 6.7.0 (08769fc)
C           -1.28704537190000        0.67569837120000        0.00008914860000
C            0.00002180190000       -0.08091725910000        0.00011918290000
C            1.28484303500000        0.67896896380000       -0.00010828420000
O            0.00210944420000       -1.28361464860000       -0.00000927780000
H           -2.04263091080000        0.12541614530000        0.55945402330000
H           -1.65316204650000        0.80886311560000       -1.01764774330000
H           -1.17299610620000        1.65819070600000        0.45812233050000
H            1.69290802790000        0.74011946520000        1.00814792500000
H            1.15112376310000        1.69157669820000       -0.38074742530000
H            2.01725680920000        0.17295955310000       -0.62837401430000
10
 energy: -13.540258765907 gnorm: 0.010709458477 xtb: 6.7.0 (08769fc)
C           -1.27822666074096        0.68341656598383        0.01471004350439
C           -0.00021199415380       -0.10557415987894        0.00090975979223
C            1.27472261253013        0.68885323784385       -0.01412411618951
O            0.00252273990429       -1.31719496996028        0.00039761689118
H           -2.04696166608412        0.12655230160369        0.54906414813928
H           -1.62008709088881        0.82099222864645       -1.01036427697700
H           -1.14922568120010        1.66515018409420        0.46868351000940
H            1.66348090542983        0.75172500787799        1.00123750792227
H            1.12726508029678        1.69986225594223       -0.39171788137129
H            2.01915020080675        0.17347845854699       -0.61975044632095
10
 energy: -13.540512826977 gnorm: 0.004970899002 xtb: 6.7.0 (08769fc)
C           -1.27580935733568        0.68495874986225        0.02579946381222
C           -0.00033362881775       -0.11665309528118        0.00103449906667
C            1.27168020718924        0.69132980519798       -0.02503201364434
O            0.00294052988289       -1.32768960660570        0.00070864484641
H           -2.05903774464619        0.12517766788557        0.53556054906922
H           -1.59513290419113        0.84060010992241       -1.00532443572652
H           -1.13346609764669        1.65584727141391        0.49309823155346
H            1.64091241448353        0.77130288626859        0.99773943207603
H            1.11026975737416        1.69199930194569       -0.41674612141530
H            2.03040526960761        0.17038802009049       -0.60779238423784
10
 energy: -13.540662718828 gnorm: 0.004257839017 xtb: 6.7.0 (08769fc)
C           -1.27394797469120        0.68479914787972        0.03502842264658
C           -0.00042972286932       -0.12438123930180        0.00077700730294
C            1.26954547741552        0.69145581868007       -0.03451722464924
O            0.00320693655072       -1.33346798902184        0.00072689766537
H           -2.06962430372372        0.11927651729487        0.51751121470944
H           -1.57226464271645        0.86890754612379       -0.99935941914567
H           -1.12489267329523        1.64031963728843        0.52814854492940
H            1.61859234384099        0.79982909750601        0.99448172107485
H            1.10047868900903        1.67845460345594       -0.45284437749784
H            2.04176431637966        0.16206797079482       -0.59090692163584
10
 energy: -13.540768870185 gnorm: 0.004504111340 xtb: 6.7.0 (08769fc)
C           -1.27270062143216        0.68362898020370        0.03954845032964
C           -0.00045074784899       -0.12765909449204        0.00024717975012
C            1.26833250292064        0.69015434711204       -0.03948671025685
O            0.00330277612139       -1.33542278308710        0.00039316181015
H           -2.07480906292282        0.11361762821829        0.50356454884100
H           -1.55939489064660        0.89135323629673       -0.99376564048382
H           -1.12317272879659        1.62740110571536        0.55454798755348
H            1.60449561018784        0.82267553868393        0.99136711327939
H            1.09837086480393        1.66701967337788       -0.48038326166544
H            2.04845474351336        0.15449247867121       -0.57698696375768
10
 energy: -13.540879615421 gnorm: 0.003452183893 xtb: 6.7.0 (08769fc)
C           -1.27164352403800        0.68207444149553        0.04263604811567
C           -0.00043398542734       -0.12879078303506       -0.00008162408001
C            1.26738934648802        0.68840294951556       -0.04300718397674
O            0.00332721442962       -1.33613849657550       -0.00010478115267
H           -2.07829999176079        0.10600274449639        0.48902417422713
H           -1.54947130758837        0.91446661233520       -0.98695024411395
H           -1.12545066275685        1.61439803641180        0.58006991911541
H            1.59299233241832        0.84616509850326        0.98694258722274
H            1.10063288523631        1.65555514087592       -0.50725497901744
H            2.05338613889907        0.14512536667688       -0.56222805094015
10
 energy: -13.540990681270 gnorm: 0.002134492437 xtb: 6.7.0 (08769fc)
C           -1.27057343866769        0.68065309762201        0.04649239408757
C           -0.00039026664594       -0.12931284299141       -0.00126129357589
C            1.26643199732733        0.68686466955245       -0.04709612814273
O            0.00332497430159       -1.33710803374025       -0.00126740108864
H           -2.08183267183892        0.09522393125141        0.47205360210688
H           -1.53898137949571        0.94202772061770       -0.97797151004883
H           -1.12905284911622        1.59978444563867        0.60930711052141
H            1.57944232607811        0.87439085455919        0.98131720013784
H            1.10482480890372        1.64248674541747       -0.53877275028890
H            2.05923494505372        0.13225052277276       -0.54375535830873
10
 energy: -13.541087401727 gnorm: 0.002217678063 xtb: 6.7.0 (08769fc)
C           -1.26971038914078        0.67957028492193        0.05106873949263
C           -0.00036628082854       -0.12988713595576       -0.00220701066676
C            1.26562474087679        0.68579507515100       -0.05217565361888
O            0.00325111056384       -1.33837598847488       -0.00163254592441
H           -2.08603450213792        0.08340636870254        0.45280006424589
H           -1.52715295217000        0.97199815164430       -0.96774494145217
H           -1.13331147537823        1.58346286816041        0.64068668875620
H            1.56478274419705        0.90447055880146        0.97391974767581
H            1.10983428901170        1.62810787510966       -0.57210122364170
H            2.06551116090609        0.11871305263936       -0.52356799946662
10
 energy: -13.541184445047 gnorm: 0.003896898386 xtb: 6.7.0 (08769fc)
C           -1.26864850496991        0.67849326208902        0.05816870180856
C           -0.00030605346276       -0.13114485460308       -0.00197313184691
C            1.26472737358280        0.68466028291244       -0.05936634009011
O            0.00317759580570       -1.34023774453780       -0.00402168952647
H           -2.09247699172211        0.06887637665607        0.42530540334691
H           -1.50911761020699        1.01264948828748       -0.95251095817934
H           -1.13931490489620        1.55981570147404        0.68417080807052
H            1.54446684407613        0.94674878035054        0.96267311426083
H            1.11593688111309        1.60664901710539       -0.61872404063844
H            2.07398381658025        0.10075080096591       -0.49467600180557
10
 energy: -13.541248087389 gnorm: 0.006088144643 xtb: 6.7.0 (08769fc)
C           -1.26762565051988        0.67749757837428        0.06743153220867
C           -0.00024457391565       -0.13286541590288       -0.00644535169322
C            1.26397473880112        0.68338000293741       -0.06839551386526
O            0.00289721034201       -1.34226471874634       -0.00857920109739
H           -2.09871948140790        0.05330136808382        0.39240875241958
H           -1.48915588993744        1.06213868747167       -0.93004177346322
H           -1.14669871882471        1.52873603460976        0.73702886633064
H            1.51584865825537        1.00005551845862        0.94743857641967
H            1.12557552236277        1.57694865282364       -0.67734004883324
H            2.08657663074431        0.08033340259002       -0.45445997302625
10
 energy: -13.541296616277 gnorm: 0.002971733280 xtb: 6.7.0 (08769fc)
C           -1.26777691869702        0.67740337104563        0.07068743864062
C           -0.00026722685345       -0.13308553988896       -0.00191332011957
C            1.26411361091721        0.68346586206456       -0.07088166290062
O            0.00272325141136       -1.34232676912118       -0.00736241052666
H           -2.10368805486284        0.04979413059591        0.37600537993198
H           -1.47753748276407        1.07835674429218       -0.92169138821403
H           -1.15261241984828        1.51563886796293        0.75448139321511
H            1.51181625890125        1.01623619604253        0.93685126407281
H            1.12952719009566        1.56454397487843       -0.69376667641446
H            2.08613023760018        0.07723427282797       -0.44336415228518
10
 energy: -13.541322912741 gnorm: 0.002013941810 xtb: 6.7.0 (08769fc)
C           -1.26729146614730        0.67731243163136        0.07450342771688
C           -0.00022963206226       -0.13444408887779       -0.00819394609205
C            1.26399783601195        0.68295129286521       -0.07485107997248
O            0.00249897502628       -1.34320133476351       -0.01297775499338
H           -2.10303082246688        0.04672749184112        0.36218308577262
H           -1.47149450328457        1.10152601399881       -0.90680438772567
H           -1.15427184969998        1.49709926537950        0.77874619058965
H            1.49272751030920        1.04385371836181        0.92835137719174
H            1.13493966225715        1.54553452186736       -0.72348112703761
H            2.09458273595643        0.06990179839611       -0.41842992004971
10
 energy: -13.541316825995 gnorm: 0.004504991456 xtb: 6.7.0 (08769fc)
C           -1.26636304268211        0.67644939475709        0.08130979211332
C           -0.00021696726868       -0.13684034038712       -0.00663716253720
C            1.26330663191557        0.68206297593063       -0.08096487638909
O            0.00225547729939       -1.34493937562259       -0.01469334915902
H           -2.11052105677450        0.03738902258113        0.33186608738976
H           -1.45055382382890        1.14205899052333       -0.88899948397499
H           -1.15898247390135        1.46823157121747        0.82223852425520
H            1.47260801922112        1.08661803661708        0.91233171128973
H            1.13984784688700        1.51784391322175       -0.76925452156120
H            2.10104783503247        0.05838692186122       -0.38815085602653
10
 energy: -13.541337672914 gnorm: 0.000531842335 xtb: 6.7.0 (08769fc)
C           -1.26682690179968        0.67687340497254        0.07801194032710
C           -0.00023140940222       -0.13587898642043       -0.00594020530103
C            1.26367394495628        0.68256983096409       -0.07765215981861
O            0.00236877246315       -1.34396145443509       -0.01308818802188
H           -2.10829487517951        0.04289714681075        0.34499138730063
H           -1.45894654716681        1.12276283407657       -0.89718255622824
H           -1.15668560354722        1.48069341132791        0.80150491744976
H            1.48331946004434        1.06598794109253        0.91821032277150
H            1.13703777673168        1.52956006970076       -0.74665396342122
H            2.09701382879999        0.06575691261036       -0.40315562965802
10
 energy: -13.541341352660 gnorm: 0.000681090773 xtb: 6.7.0 (08769fc)
C           -1.26661505429920        0.67677094930508        0.08021301634537
C           -0.00023163700389       -0.13633243412221       -0.00716800099951
C            1.26360485702076        0.68237446050818       -0.07959915551202
O            0.00226257445176       -1.34431533390355       -0.01551244049961
H           -2.10968061177514        0.04068255608614        0.33717941829487
H           -1.45470409027630        1.13435694524496       -0.89001967947287
H           -1.15882471622499        1.47174982759533        0.81362323652262
H            1.47540496189342        1.07950061834038        0.91289414334113
H            1.14054395345627        1.52037677418023       -0.76087058080925
H            2.10066820865732        0.06209674746546       -0.39169409181073
10
 energy: -13.541343397003 gnorm: 0.000942745263 xtb: 6.7.0 (08769fc)
C           -1.26600664503789        0.67647244760100        0.08339007607268
C           -0.00022932954860       -0.13733283907357       -0.00771532963987
C            1.26323700831223        0.68197085337865       -0.08202465838323
O            0.00200835466361       -1.34525501812572       -0.01797847265984
H           -2.11214465293591        0.03716104325902        0.32335798875428
H           -1.44578796690126        1.15369378132744       -0.87948601659437
H           -1.16196598246524        1.45687135639554        0.83347500648815
H            1.46450282478161        1.10135577578134        0.90360870351507
H            1.14504690669564        1.50493777030398       -0.78277681983521
H            2.10376792833582        0.05738593985232       -0.37480461231768
10
 energy: -13.541344730945 gnorm: 0.000419937012 xtb: 6.7.0 (08769fc)
C           -1.26613491252919        0.67646068827823        0.08353075376180
C           -0.00023974505951       -0.13687973190572       -0.00813076875608
C            1.26336733867511        0.68202197315484       -0.08205161096533
O            0.00196570844757       -1.34490663794002       -0.01913807833215
H           -2.11183524141658        0.03714133674799        0.32351521765110
H           -1.44656263602271        1.15368970108981       -0.87835503133430
H           -1.16261188714697        1.45643568293026        0.83336284453237
H            1.46373567565740        1.10213819725506        0.90267891471567
H            1.14650040790174        1.50406569926565       -0.78328495919824
H            2.10424373739315        0.05709420182390       -0.37308141667486
10
 energy: -13.541345062021 gnorm: 0.000264641012 xtb: 6.7.0 (08769fc)
C           -1.26613952830216        0.67632721113988        0.08422638895645
C           -0.00022610020691       -0.13673492553859       -0.00851666929421
C            1.26344616957983        0.68188424419295       -0.08247182124826
O            0.00189052945813       -1.34482882272519       -0.02027432939745
H           -2.11205986849329        0.03620604957064        0.32136492174935
H           -1.44565616516490        1.15690101702948       -0.87616072527595
H           -1.16337909187580        1.45408347856366        0.83655890609396
H            1.46166827968348        1.10628873428639        0.90088712194077
H            1.14801728921657        1.50122426508745       -0.78722060315774
H            2.10486693200505        0.05590985909332       -0.36934732496694
10
 energy: -13.541345288593 gnorm: 0.000190466676 xtb: 6.7.0 (08769fc)
C           -1.26612541590624        0.67617591540307        0.08493694045001
C           -0.00023140545933       -0.13662465642512       -0.00894830327655
C            1.26348465204770        0.68178860026988       -0.08281897147900
O            0.00178628238034       -1.34475442362745       -0.02197038925074
H           -2.11207300104139        0.03533223707145        0.31955286496725
H           -1.44496999927577        1.15992731418788       -0.87406112109905
H           -1.16396692175739        1.45182796093714        0.83978089286906
H            1.45939401250023        1.11062830332843        0.89898677597828
H            1.14970334230342        1.49823546781307       -0.79132598709006
H            2.10542690010844        0.05472439174164       -0.36508683666922
10
 energy: -13.541345428327 gnorm: 0.000212933006 xtb: 6.7.0 (08769fc)
C           -1.26608786859910        0.67613892800551        0.08536478956733
C           -0.00021844912646       -0.13659922353600       -0.00939780118870
C            1.26355840603472        0.68170091314011       -0.08285115003781
O            0.00169807752647       -1.34472226091510       -0.02337520644821
H           -2.11205243498466        0.03507928254551        0.31957743887153
H           -1.44515078103917        1.16047064377193       -0.87328861946242
H           -1.16387025992165        1.45144943428835        0.84046409319180
H            1.45827332518893        1.11230789629082        0.89848723940117
H            1.15050232410478        1.49705679814392       -0.79270169390858
H            2.10577610671614        0.05437869896495       -0.36323322458613
10
 energy: -13.541345793634 gnorm: 0.000261667280 xtb: 6.7.0 (08769fc)
C           -1.26601209554088        0.67608123549385        0.08623531212153
C           -0.00022372566810       -0.13653297222681       -0.01064165006433
C            1.26366325550191        0.68166738874398       -0.08271607747352
O            0.00146341901884       -1.34461935019787       -0.02753429280039
H           -2.11162171347723        0.03479933100728        0.32104125962960
H           -1.44635251018038        1.16055695496500       -0.87213213787193
H           -1.16309481324630        1.45130391904691        0.84129200349804
H            1.45548848445711        1.11551021936399        0.89773360650585
H            1.15237570933131        1.49480847182382       -0.79542729419651
H            2.10674243570373        0.05368591267984       -0.35880486394836
10
 energy: -13.541345967763 gnorm: 0.000084334180 xtb: 6.7.0 (08769fc)
C           -1.26589550950358        0.67619354907012        0.08609270098560
C           -0.00024964499271       -0.13669866591731       -0.01092773254025
C            1.26360103355547        0.68173104961252       -0.08246700632612
O            0.00137791729858       -1.34474817373475       -0.02819604709351
H           -2.11145782936962        0.03508104755787        0.32199823144778
H           -1.44669714846812        1.16011727477018       -0.87261429816187
H           -1.16238855429559        1.45151824797158        0.84104746871018
H            1.45489048027625        1.11548618228835        0.89806980678079
H            1.15228703204309        1.49468147488447       -0.79531903064265
H            2.10696066935623        0.05389912419696       -0.35863822775997
10
 energy: -13.541346071676 gnorm: 0.000094767642 xtb: 6.7.0 (08769fc)
C           -1.26585356556759        0.67622015206737        0.08610413000597
C           -0.00024268204619       -0.13680813721352       -0.01107611137012
C            1.26362120688852        0.68174907107286       -0.08223256190737
O            0.00130993179576       -1.34481546383539       -0.02914784651506
H           -2.11140468167586        0.03537890252082        0.32293718333885
H           -1.44719916699732        1.15935193718083       -0.87287000842578
H           -1.16190891650914        1.45206851028183        0.84045500823885
H            1.45464121779852        1.11534705095323        0.89836335417896
H            1.15231155754119        1.49468643479537       -0.79508394208048
H            2.10715354467212        0.05408265287659       -0.35840334006384
10
 energy: -13.541346320254 gnorm: 0.000288718076 xtb: 6.7.0 (08769fc)
C           -1.26571147831833        0.67631031988352        0.08626925672466
C           -0.00028548024086       -0.13701022960090       -0.01234105350401
C            1.26367828707431        0.68177102803028       -0.08142270945035
O            0.00102056736289       -1.34491870505146       -0.03284188441696
H           -2.11080481919411        0.03614118657018        0.32675317220076
H           -1.44945395769124        1.15646231667556       -0.87369067114605
H           -1.16001013246435        1.45429928460400        0.83813973945577
H            1.45345977091369        1.11500806634954        0.89947229279631
H            1.15285662484594        1.49477422618823       -0.79426687145658
H            2.10767906361208        0.05442361705105       -0.35702540580356
10
 energy: -13.541346534809 gnorm: 0.000267220893 xtb: 6.7.0 (08769fc)
C           -1.26561393533458        0.67640810078888        0.08652051256938
C           -0.00030638375075       -0.13697633672264       -0.01307890292751
C            1.26378129960546        0.68171228282736       -0.08054385828113
O            0.00064961469266       -1.34482315548514       -0.03724369795146
H           -2.10990071565977        0.03669031718107        0.33095291008188
H           -1.45195501273405        1.15305917126027       -0.87475545125193
H           -1.15829806558556        1.45704069207066        0.83535462822414
H            1.45258281387276        1.11457984222862        0.90070519601907
H            1.15350572686004        1.49506512172374       -0.79311954471070
H            2.10798310393380        0.05450507482717       -0.35574592637174
10
 energy: -13.541346644468 gnorm: 0.000104466639 xtb: 6.7.0 (08769fc)
C           -1.26565285599884        0.67641135176153        0.08668349071835
C           -0.00033526763444       -0.13675953270415       -0.01394106375056
C            1.26391887776337        0.68162076522245       -0.08014068091124
O            0.00047536245037       -1.34461552562236       -0.03946225109660
H           -2.10936347914179        0.03684771511279        0.33331653419369
H           -1.45368004095789        1.15126074161293       -0.87519347093997
H           -1.15754255075852        1.45849675654364        0.83383059181752
H            1.45210811752583        1.11435163690654        0.90134448975351
H            1.15430220000175        1.49526875722147       -0.79250736327433
H            2.10819808265017        0.05437844464516       -0.35488441111038
10
 energy: -13.541346661322 gnorm: 0.000019382553 xtb: 6.7.0 (08769fc)
C           -1.26563407524331        0.67642684006196        0.08670882585177
C           -0.00033964814151       -0.13665671548586       -0.01409077024605
C            1.26390400533378        0.68160922804362       -0.08006232396261
O            0.00043212706120       -1.34454036917902       -0.03987149520385
H           -2.10909184928507        0.03676371133430        0.33380967380296
H           -1.45406392348619        1.15082028008073       -0.87532048836093
H           -1.15745151505330        1.45891476820543        0.83341440515556
H            1.45211994484703        1.11420738923987        0.90152027364966
H            1.15449168442414        1.49546013067629       -0.79226487133126
H            2.10806169544324        0.05425584772268       -0.35479736395527
