10
 energy: -13.541346661560 gnorm: 0.000018489329 xtb: 6.7.0 (08769fc)
C           -1.26563407524331        0.67642684006196        0.08670882585177
C           -0.00033964814151       -0.13665671548586       -0.01409077024605
C            1.26390400533378        0.68160922804362       -0.08006232396261
O            0.00043212706120       -1.34454036917902       -0.03987149520385
H           -2.10909184928507        0.03676371133430        0.33380967380296
H           -1.45406392348619        1.15082028008073       -0.87532048836093
H           -1.15745151505330        1.45891476820543        0.83341440515556
H            1.45211994484703        1.11420738923987        0.90152027364966
H            1.15449168442414        1.49546013067629       -0.79226487133126
H            2.10806169544324        0.05425584772268       -0.35479736395527
