      -----------------------------------------------------------      
     |                   =====================                   |     
     |                           x T B                           |     
     |                   =====================                   |     
     |                         S. Grimme                         |     
     |          Mulliken Center for Theoretical Chemistry        |     
     |                    University of Bonn                     |     
      -----------------------------------------------------------      

   * xtb version 6.7.0 (08769fc) compiled by 'albert@albert-system' on 2024-03-04

   xtb is free software: you can redistribute it and/or modify it under
   the terms of the GNU Lesser General Public License as published by
   the Free Software Foundation, either version 3 of the License, or
   (at your option) any later version.
   
   xtb is distributed in the hope that it will be useful,
   but WITHOUT ANY WARRANTY; without even the implied warranty of
   MERCHANTABILITY or FITNESS FOR A PARTICULAR PURPOSE.  See the
   GNU Lesser General Public License for more details.
   
   Cite this work as:
   * C. Bannwarth, E. Caldeweyher, S. Ehlert, A. Hansen, P. Pracht,
     J. Seibert, S. Spicher, S. Grimme, WIREs Comput. Mol. Sci., 2020, 11,
     e01493. DOI: 10.1002/wcms.1493
   
   for GFN2-xTB:
   * C. Bannwarth, S. Ehlert and S. Grimme., J. Chem. Theory Comput., 2019,
     15, 1652-1671. DOI: 10.1021/acs.jctc.8b01176
   for GFN1-xTB:
   * S. Grimme, C. Bannwarth, P. Shushkov, J. Chem. Theory Comput., 2017,
     13, 1989-2009. DOI: 10.1021/acs.jctc.7b00118
   for GFN0-xTB:
   * P. Pracht, E. Caldeweyher, S. Ehlert, S. Grimme, ChemRxiv, 2019, preprint.
     DOI: 10.26434/chemrxiv.8326202.v1
   for GFN-FF:
   * S. Spicher and S. Grimme, Angew. Chem. Int. Ed., 2020, 59, 15665-15673.
     DOI: 10.1002/anie.202004239
   
   for ALPB and GBSA implicit solvation:
   * S. Ehlert, M. Stahn, S. Spicher, S. Grimme, J. Chem. Theory Comput.,
     2021, 17, 4250-4261. DOI: 10.1021/acs.jctc.1c00471
   
   for ddCOSMO and CPCM-X implicit solvation:
   * M. Stahn, S. Ehlert, S. Grimme, J. Phys. Chem. A,
     2023, XX, XXXX-XXXX. DOI: 10.1021/acs.jpca.3c04382
   
   for DFT-D4:
   * E. Caldeweyher, C. Bannwarth and S. Grimme, J. Chem. Phys., 2017,
     147, 034112. DOI: 10.1063/1.4993215
   * E. Caldeweyher, S. Ehlert, A. Hansen, H. Neugebauer, S. Spicher,
     C. Bannwarth and S. Grimme, J. Chem. Phys., 2019, 150, 154122.
     DOI: 10.1063/1.5090222
   * E. Caldeweyher, J.-M. Mewes, S. Ehlert and S. Grimme, Phys. Chem. Chem. Phys.
     2020, 22, 8499-8512. DOI: 10.1039/D0CP00502A
   
   for sTDA-xTB:
   * S. Grimme and C. Bannwarth, J. Chem. Phys., 2016, 145, 054103.
     DOI: 10.1063/1.4959605
   
   in the mass-spec context:
   * V. Asgeirsson, C. Bauer and S. Grimme, Chem. Sci., 2017, 8, 4879.
     DOI: 10.1039/c7sc00601b
   * J. Koopman and S. Grimme, ACS Omega 2019, 4, 12, 15120-15133.
     DOI: 10.1021/acsomega.9b02011
   
   for metadynamics refer to:
   * S. Grimme, J. Chem. Theory Comput., 2019, 155, 2847-2862
     DOI: 10.1021/acs.jctc.9b00143
   
   for SPH calculations refer to:
   * S. Spicher and S. Grimme, J. Chem. Theory Comput., 2021, 17, 1701-1714
     DOI: 10.1021/acs.jctc.0c01306
   
   for ONIOM refer to:
   * C. Plett, A. Katbashev, S. Ehlert, S. Grimme, M. Bursch,
     Phys. Chem. Chem. Phys., 2023, 25, 17860-17868. DOI: 10.1039/D3CP02178E
   
   for DIPRO refer to:
   * J. Kohn, N. Gildemeister, S. Grimme, D. Fazzi, A. Hansen,
     J. Chem. Phys., 2023, just accepted.
   
   for PTB refer to:
   * S. Grimme, M. Mueller, A. Hansen, J. Chem. Phys., 2023, 158, 124111.
     DOI: 10.1063/5.0137838
   
   with help from (in alphabetical order)
   P. Atkinson, C. Bannwarth, F. Bohle, G. Brandenburg, E. Caldeweyher
   M. Checinski, S. Dohm, S. Ehlert, S. Ehrlich, I. Gerasimov, C. Hölzer
   A. Katbashev, J. Kohn, J. Koopman, C. Lavigne, S. Lehtola, F. März, M. Müller,
   F. Musil, H. Neugebauer, J. Pisarek, C. Plett, P. Pracht, F. Pultar,
   J. Seibert, P. Shushkov, S. Spicher, M. Stahn, M. Steiner, T. Strunk,
   J. Stückrath, T. Rose, and J. Unsleber
   
 * started run on 2024/08/07 at 20:37:09.339     
   ID    Z sym.   atoms
    1    8 O      1
    2    6 C      2, 3, 5, 6
    3    7 N      4, 7
    4    1 H      8-13

           -------------------------------------------------
          |                Calculation Setup                |
           -------------------------------------------------

          program call               : /home/mvotokps/xtb-dist/bin/xtb crest_best.xyz --gfn 2 --alpb toluene --opt vtight -c 0 --iterations 4000
          coordinate file            : crest_best.xyz
          omp threads                :                     8


           -------------------------------------------------
          |                 G F N 2 - x T B                 |
           -------------------------------------------------

        Reference                      10.1021/acs.jctc.8b01176
      * Hamiltonian:
        H0-scaling (s, p, d)           1.850000    2.230000    2.230000
        zeta-weighting                 0.500000
      * Dispersion:
        s8                             2.700000
        a1                             0.520000
        a2                             5.000000
        s9                             5.000000
      * Repulsion:
        kExp                           1.500000    1.000000
        rExp                           1.000000
      * Coulomb:
        alpha                          2.000000
        third order                    shell-resolved
        anisotropic                    true
        a3                             3.000000
        a5                             4.000000
        cn-shift                       1.200000
        cn-exp                         4.000000
        max-rad                        5.000000

      * Solvation model:               ALPB
        Solvent                        toluene
        Parameter file                 internal GFN2-xTB/ALPB
        Dielectric constant                7.0000E+00
        Reference state                gsolv [1 M gas/solution]
        Free energy shift                  2.2081E-03 Eh       1.3856E+00 kcal/mol
        Temperature                        2.9815E+02 K
        Density                            8.6700E-01 kg/L
        Solvent mass                       7.8110E+01 g/mol
        Interaction kernel             P16
        Born radius scaling (c1)           1.7172E+00
        Born radii integrator          GBOBC
        Born offset                        0.0000E+00 a0       0.0000E+00 AA
        H-bond correction              false
        Ion screening                  false
        Surface tension                    1.0000E-05 Eh       1.5569E+01 dyn/cm
        Grid points                               230 per atom

          ...................................................
          :                      SETUP                      :
          :.................................................:
          :  # basis functions                  34          :
          :  # atomic orbitals                  34          :
          :  # shells                           20          :
          :  # electrons                        38          :
          :  max. iterations                  4000          :
          :  Hamiltonian                  GFN2-xTB          :
          :  restarted?                      false          :
          :  GBSA solvation                   true          :
          :  PC potential                    false          :
          :  electronic temp.          300.0000000     K    :
          :  accuracy                    1.0000000          :
          :  -> integral cutoff          0.2500000E+02      :
          :  -> integral neglect         0.1000000E-07      :
          :  -> SCF convergence          0.1000000E-05 Eh   :
          :  -> wf. convergence          0.1000000E-03 e    :
          :  Broyden damping             0.4000000          :
          :  net charge                          0          :
          :  unpaired electrons                  0          :
          ...................................................

 iter      E             dE          RMSdq      gap      omega  full diag
   1    -21.7095879 -0.217096E+02  0.501E+00    4.91       0.0  T
   2    -21.7198928 -0.103049E-01  0.305E+00    4.88       1.0  T
   3    -21.6972634  0.226294E-01  0.192E+00    4.34       1.0  T
   4    -21.7288977 -0.316342E-01  0.420E-01    4.30       1.0  T
   5    -21.7298681 -0.970435E-03  0.120E-01    4.28       1.0  T
   6    -21.7298902 -0.221385E-04  0.481E-02    4.30       1.0  T
   7    -21.7298925 -0.223300E-05  0.113E-02    4.30       2.4  T
   8    -21.7298928 -0.374296E-06  0.468E-03    4.30       5.9  T
   9    -21.7298929 -0.588308E-07  0.206E-03    4.30      13.5  T
  10    -21.7298929 -0.452398E-08  0.504E-04    4.30      55.0  T
  11    -21.7298929 -0.758270E-09  0.167E-04    4.30     166.2  T

   *** convergence criteria satisfied after 11 iterations ***

         #    Occupation            Energy/Eh            Energy/eV
      -------------------------------------------------------------
         1        2.0000           -0.7113508             -19.3568
       ...           ...                  ...                  ...
        13        2.0000           -0.4918670             -13.3844
        14        2.0000           -0.4801222             -13.0648
        15        2.0000           -0.4726896             -12.8625
        16        2.0000           -0.4661019             -12.6833
        17        2.0000           -0.4508686             -12.2688
        18        2.0000           -0.4323769             -11.7656
        19        2.0000           -0.3979335             -10.8283 (HOMO)
        20                         -0.2399100              -6.5283 (LUMO)
        21                         -0.2304264              -6.2702
        22                         -0.0926073              -2.5200
        23                          0.0098301               0.2675
        24                          0.0447520               1.2178
       ...                                ...                  ...
        34                          1.0695828              29.1048
      -------------------------------------------------------------
                  HL-Gap            0.1580235 Eh            4.3000 eV
             Fermi-level           -0.3189218 Eh           -8.6783 eV

 SCC (total)                   0 d,  0 h,  0 min,  0.131 sec
 SCC setup                      ...        0 min,  0.000 sec (  0.352%)
 Dispersion                     ...        0 min,  0.000 sec (  0.257%)
 classical contributions        ...        0 min,  0.000 sec (  0.132%)
 integral evaluation            ...        0 min,  0.001 sec (  0.831%)
 iterations                     ...        0 min,  0.125 sec ( 95.116%)
 molecular gradient             ...        0 min,  0.004 sec (  3.135%)
 printout                       ...        0 min,  0.000 sec (  0.124%)

         :::::::::::::::::::::::::::::::::::::::::::::::::::::
         ::                     SUMMARY                     ::
         :::::::::::::::::::::::::::::::::::::::::::::::::::::
         :: total energy             -21.454071673912 Eh    ::
         :: total w/o Gsasa/hb       -21.445233711777 Eh    ::
         :: gradient norm              0.067389415117 Eh/a0 ::
         :: HOMO-LUMO gap              4.300038539284 eV    ::
         ::.................................................::
         :: SCC energy               -21.729882520639 Eh    ::
         :: -> isotropic ES            0.039307896663 Eh    ::
         :: -> anisotropic ES          0.003225250301 Eh    ::
         :: -> anisotropic XC          0.024794040121 Eh    ::
         :: -> dispersion             -0.007837904180 Eh    ::
         :: -> Gsolv                  -0.010596721977 Eh    ::
         ::    -> Gelec               -0.001758759843 Eh    ::
         ::    -> Gsasa               -0.011046105273 Eh    ::
         ::    -> Ghb                  0.000000000000 Eh    ::
         ::    -> Gshift               0.002208143139 Eh    ::
         :: repulsion energy           0.275810846728 Eh    ::
         :: add. restraining           0.000000000000 Eh    ::
         :: total charge              -0.000000000000 e     ::
         :::::::::::::::::::::::::::::::::::::::::::::::::::::

      ----------------------------------------------------------- 
     |                   =====================                   |
     |                        A N C O P T                        |
     |                   =====================                   |
     |               Approximate Normal Coordinate               |
     |                Rational Function Optimizer                |
      ----------------------------------------------------------- 
      ----------------------------------------------------------- 
     |                   =====================                   |
     |                        A N C O P T                        |
     |                   =====================                   |
     |               Approximate Normal Coordinate               |
     |                Rational Function Optimizer                |
      ----------------------------------------------------------- 

          ...................................................
          :                      SETUP                      :
          :.................................................:
          :   optimization level         verytight          :
          :   max. optcycles                   260          :
          :   ANC micro-cycles                  20          :
          :   degrees of freedom                33          :
          :.................................................:
          :   RF solver                   davidson          :
          :   write xtbopt.log                true          :
          :   linear?                        false          :
          :   energy convergence         0.1000000E-06 Eh   :
          :   grad. convergence          0.2000000E-03 Eh/α :
          :   maxmium RF displ.          1.0000000          :
          :   Hlow (freq-cutoff)         0.1000000E-01      :
          :   Hmax (freq-cutoff)         5.0000000          :
          :   S6 in model hess.         20.0000000          :
          ...................................................

generating ANC from model Hessian ...
Using Lindh-Hessian (1995)
 Shifting diagonal of input Hessian by   5.831902295977465E-003
 Lowest  eigenvalues of input Hessian
    0.000000    0.000000    0.000000    0.000000    0.000000    0.000000
    0.010000    0.010825    0.015883    0.018583    0.032906    0.044053
    0.049101    0.054614    0.064392    0.071337    0.081172    0.097130
 Highest eigenvalues
    1.246313    1.274074    1.325022    1.463097    1.868678    2.530118
 

........................................................................
.............................. CYCLE    1 ..............................
........................................................................

 iter      E             dE          RMSdq      gap      omega  full diag
   1    -21.7298929 -0.217299E+02  0.675E-05    4.30       0.0  T
   2    -21.7298929 -0.621725E-11  0.381E-05    4.30     728.9  T
   3    -21.7298929 -0.128431E-10  0.242E-05    4.30    1144.8  T
     SCC iter.                  ...        0 min,  0.103 sec
     gradient                   ...        0 min,  0.003 sec
 * total energy  :   -21.4540717 Eh     change       -0.6059153E-10 Eh
   gradient norm :     0.0673912 Eh/α   predicted     0.0000000E+00 (-100.00%)
   displ. norm   :     0.1845639 α      lambda       -0.4062815E-02
   maximum displ.:     0.0855715 α      in ANC's #4, #1, #13, ...

........................................................................
.............................. CYCLE    2 ..............................
........................................................................

 iter      E             dE          RMSdq      gap      omega  full diag
   1    -21.7457749 -0.217458E+02  0.172E-01    4.57       0.0  T
   2    -21.7457849 -0.994038E-05  0.101E-01    4.56       1.0  T
   3    -21.7457847  0.125820E-06  0.193E-02    4.57       1.4  T
   4    -21.7457861 -0.134737E-05  0.771E-03    4.57       3.6  T
   5    -21.7457864 -0.355496E-06  0.415E-03    4.57       6.7  T
   6    -21.7457865 -0.540049E-07  0.918E-04    4.57      30.2  T
   7    -21.7457865 -0.213741E-08  0.343E-04    4.57      80.9  T
     SCC iter.                  ...        0 min,  0.100 sec
     gradient                   ...        0 min,  0.001 sec
 * total energy  :   -21.4565555 Eh     change       -0.2483825E-02 Eh
   gradient norm :     0.0189198 Eh/α   predicted    -0.2100608E-02 ( -15.43%)
   displ. norm   :     0.2145181 α      lambda       -0.1132187E-02
   maximum displ.:     0.1734613 α      in ANC's #1, #3, #2, ...

........................................................................
.............................. CYCLE    3 ..............................
........................................................................

 iter      E             dE          RMSdq      gap      omega  full diag
   1    -21.7451808 -0.217452E+02  0.378E-01    4.60       0.0  T
   2    -21.7452012 -0.203392E-04  0.210E-01    4.61       1.0  T
   3    -21.7452073 -0.615059E-05  0.155E-02    4.62       1.8  T
   4    -21.7452089 -0.153737E-05  0.724E-03    4.62       3.8  T
   5    -21.7452088  0.332541E-07  0.335E-03    4.62       8.3  T
   6    -21.7452089 -0.862432E-07  0.973E-04    4.62      28.5  T
   7    -21.7452089 -0.368874E-08  0.500E-04    4.62      55.4  T
     SCC iter.                  ...        0 min,  0.102 sec
     gradient                   ...        0 min,  0.001 sec
 * total energy  :   -21.4571978 Eh     change       -0.6422628E-03 Eh
   gradient norm :     0.0096126 Eh/α   predicted    -0.5921433E-03 (  -7.80%)
   displ. norm   :     0.1949953 α      lambda       -0.6815800E-03
   maximum displ.:     0.1089936 α      in ANC's #3, #2, #5, ...

........................................................................
.............................. CYCLE    4 ..............................
........................................................................

 iter      E             dE          RMSdq      gap      omega  full diag
   1    -21.7454934 -0.217455E+02  0.224E-01    4.68       0.0  T
   2    -21.7455026 -0.929223E-05  0.127E-01    4.68       1.0  T
   3    -21.7454783  0.243571E-04  0.529E-02    4.68       1.0  T
   4    -21.7455087 -0.304465E-04  0.831E-03    4.68       3.3  T
   5    -21.7455089 -0.196147E-06  0.386E-03    4.68       7.2  T
   6    -21.7455089 -0.140509E-07  0.101E-03    4.68      27.5  T
   7    -21.7455089 -0.145009E-08  0.327E-04    4.68      84.8  T
   8    -21.7455089 -0.230401E-09  0.160E-04    4.68     173.5  T
     SCC iter.                  ...        0 min,  0.108 sec
     gradient                   ...        0 min,  0.005 sec
 * total energy  :   -21.4573339 Eh     change       -0.1361376E-03 Eh
   gradient norm :     0.0154321 Eh/α   predicted    -0.3537466E-03 ( 159.84%)
   displ. norm   :     0.0641939 α      lambda       -0.3512724E-03
   maximum displ.:     0.0485119 α      in ANC's #1, #4, #8, ...

........................................................................
.............................. CYCLE    5 ..............................
........................................................................

 iter      E             dE          RMSdq      gap      omega  full diag
   1    -21.7454179 -0.217454E+02  0.182E-01    4.66       0.0  T
   2    -21.7454236 -0.570517E-05  0.101E-01    4.66       1.0  T
   3    -21.7454139  0.971867E-05  0.334E-02    4.67       1.0  T
   4    -21.7454266 -0.126381E-04  0.460E-03    4.66       6.0  T
   5    -21.7454266 -0.917187E-07  0.196E-03    4.66      14.1  T
   6    -21.7454266 -0.296165E-08  0.587E-04    4.66      47.2  T
   7    -21.7454266 -0.405358E-09  0.211E-04    4.66     131.1  T
     SCC iter.                  ...        0 min,  0.107 sec
     gradient                   ...        0 min,  0.001 sec
 * total energy  :   -21.4575549 Eh     change       -0.2210309E-03 Eh
   gradient norm :     0.0063278 Eh/α   predicted    -0.1763613E-03 ( -20.21%)
   displ. norm   :     0.0866846 α      lambda       -0.1159147E-03
   maximum displ.:     0.0508896 α      in ANC's #1, #3, #2, ...

........................................................................
.............................. CYCLE    6 ..............................
........................................................................

 iter      E             dE          RMSdq      gap      omega  full diag
   1    -21.7448167 -0.217448E+02  0.117E-01    4.66       0.0  T
   2    -21.7448189 -0.216625E-05  0.655E-02    4.66       1.0  T
   3    -21.7448142  0.469192E-05  0.228E-02    4.67       1.2  T
   4    -21.7448201 -0.591627E-05  0.334E-03    4.67       8.3  T
   5    -21.7448201 -0.393400E-07  0.149E-03    4.67      18.6  T
   6    -21.7448201 -0.142539E-08  0.343E-04    4.67      80.9  T
   7    -21.7448201 -0.304141E-09  0.141E-04    4.67     196.9  T
     SCC iter.                  ...        0 min,  0.107 sec
     gradient                   ...        0 min,  0.005 sec
 * total energy  :   -21.4576351 Eh     change       -0.8017609E-04 Eh
   gradient norm :     0.0057949 Eh/α   predicted    -0.5839131E-04 ( -27.17%)
   displ. norm   :     0.0811314 α      lambda       -0.9339937E-04
   maximum displ.:     0.0498507 α      in ANC's #3, #2, #5, ...

........................................................................
.............................. CYCLE    7 ..............................
........................................................................

 iter      E             dE          RMSdq      gap      omega  full diag
   1    -21.7462068 -0.217462E+02  0.521E-02    4.69       0.0  T
   2    -21.7462074 -0.571006E-06  0.305E-02    4.69       1.0  T
   3    -21.7462049  0.250390E-05  0.170E-02    4.69       1.6  T
   4    -21.7462079 -0.303353E-05  0.238E-03    4.69      11.6  T
   5    -21.7462080 -0.120527E-07  0.103E-03    4.69      26.9  T
   6    -21.7462080 -0.843670E-09  0.326E-04    4.69      85.1  T
   7    -21.7462080 -0.179721E-09  0.813E-05    4.69     341.0  T
     SCC iter.                  ...        0 min,  0.155 sec
     gradient                   ...        0 min,  0.012 sec
 * total energy  :   -21.4576921 Eh     change       -0.5702653E-04 Eh
   gradient norm :     0.0025232 Eh/α   predicted    -0.4700876E-04 ( -17.57%)
   displ. norm   :     0.0594810 α      lambda       -0.3213299E-04
   maximum displ.:     0.0360094 α      in ANC's #3, #2, #1, ...

........................................................................
.............................. CYCLE    8 ..............................
........................................................................

 iter      E             dE          RMSdq      gap      omega  full diag
   1    -21.7460074 -0.217460E+02  0.445E-02    4.70       0.0  T
   2    -21.7460078 -0.326996E-06  0.259E-02    4.70       1.1  T
   3    -21.7460073  0.427518E-06  0.769E-03    4.70       3.6  T
   4    -21.7460079 -0.592778E-06  0.209E-03    4.70      13.3  T
   5    -21.7460079 -0.886545E-08  0.959E-04    4.70      28.9  T
   6    -21.7460079 -0.226423E-08  0.208E-04    4.70     133.3  T
     SCC iter.                  ...        0 min,  0.311 sec
     gradient                   ...        0 min,  0.013 sec
 * total energy  :   -21.4577100 Eh     change       -0.1782746E-04 Eh
   gradient norm :     0.0028559 Eh/α   predicted    -0.1612408E-04 (  -9.55%)
   displ. norm   :     0.0127872 α      lambda       -0.1547576E-04
   maximum displ.:     0.0048792 α      in ANC's #13, #6, #1, ...

........................................................................
.............................. CYCLE    9 ..............................
........................................................................

 iter      E             dE          RMSdq      gap      omega  full diag
   1    -21.7466339 -0.217466E+02  0.205E-02    4.71       0.0  T
   2    -21.7466341 -0.157627E-06  0.117E-02    4.71       2.4  T
   3    -21.7466341  0.218800E-08  0.203E-03    4.71      13.7  T
   4    -21.7466341 -0.273263E-07  0.105E-03    4.71      26.3  T
   5    -21.7466341 -0.751402E-08  0.485E-04    4.71      57.1  T
   6    -21.7466341 -0.610054E-09  0.148E-04    4.71     187.3  T
     SCC iter.                  ...        0 min,  0.148 sec
     gradient                   ...        0 min,  0.004 sec
 * total energy  :   -21.4577179 Eh     change       -0.7978127E-05 Eh
   gradient norm :     0.0009609 Eh/α   predicted    -0.7737377E-05 (  -3.02%)
   displ. norm   :     0.0211556 α      lambda       -0.4282037E-05
   maximum displ.:     0.0128996 α      in ANC's #2, #1, #3, ...

........................................................................
.............................. CYCLE   10 ..............................
........................................................................

 iter      E             dE          RMSdq      gap      omega  full diag
   1    -21.7466837 -0.217467E+02  0.211E-02    4.72       0.0  T
   2    -21.7466838 -0.125379E-06  0.120E-02    4.72       2.3  T
   3    -21.7466838  0.153524E-07  0.251E-03    4.72      11.1  T
   4    -21.7466838 -0.407747E-07  0.109E-03    4.72      25.4  T
   5    -21.7466838 -0.735010E-08  0.550E-04    4.72      50.4  T
   6    -21.7466838 -0.978563E-09  0.133E-04    4.72     208.9  T
     SCC iter.                  ...        0 min,  0.120 sec
     gradient                   ...        0 min,  0.001 sec
 * total energy  :   -21.4577224 Eh     change       -0.4501712E-05 Eh
   gradient norm :     0.0012584 Eh/α   predicted    -0.2142187E-05 ( -52.41%)
   displ. norm   :     0.0367204 α      lambda       -0.4682602E-05
   maximum displ.:     0.0279989 α      in ANC's #2, #1, #4, ...

........................................................................
.............................. CYCLE   11 ..............................
........................................................................

 iter      E             dE          RMSdq      gap      omega  full diag
   1    -21.7462880 -0.217463E+02  0.353E-02    4.72       0.0  T
   2    -21.7462882 -0.196699E-06  0.198E-02    4.72       1.4  T
   3    -21.7462883 -0.624705E-07  0.152E-03    4.72      18.3  T
   4    -21.7462883 -0.466829E-08  0.798E-04    4.72      34.7  T
   5    -21.7462883 -0.740457E-09  0.209E-04    4.72     132.6  T
     SCC iter.                  ...        0 min,  0.117 sec
     gradient                   ...        0 min,  0.002 sec
 * total energy  :   -21.4577271 Eh     change       -0.4677578E-05 Eh
   gradient norm :     0.0009023 Eh/α   predicted    -0.2342608E-05 ( -49.92%)
   displ. norm   :     0.0320689 α      lambda       -0.2608155E-05
   maximum displ.:     0.0232922 α      in ANC's #2, #4, #1, ...

........................................................................
.............................. CYCLE   12 ..............................
........................................................................

 iter      E             dE          RMSdq      gap      omega  full diag
   1    -21.7462827 -0.217463E+02  0.335E-02    4.72       0.0  T
   2    -21.7462829 -0.157965E-06  0.189E-02    4.72       1.5  T
   3    -21.7462830 -0.573785E-07  0.140E-03    4.72      19.8  T
   4    -21.7462830 -0.217311E-08  0.801E-04    4.72      34.6  T
   5    -21.7462830 -0.314920E-09  0.426E-04    4.72      65.0  T
     SCC iter.                  ...        0 min,  0.099 sec
     gradient                   ...        0 min,  0.001 sec
 * total energy  :   -21.4577299 Eh     change       -0.2774883E-05 Eh
   gradient norm :     0.0006385 Eh/α   predicted    -0.1304456E-05 ( -52.99%)
   displ. norm   :     0.0236370 α      lambda       -0.1542133E-05
   maximum displ.:     0.0201471 α      in ANC's #2, #4, #5, ...

........................................................................
.............................. CYCLE   13 ..............................
........................................................................

 iter      E             dE          RMSdq      gap      omega  full diag
   1    -21.7462094 -0.217462E+02  0.228E-02    4.72       0.0  T
   2    -21.7462095 -0.855040E-07  0.129E-02    4.72       2.2  T
   3    -21.7462095 -0.210656E-07  0.139E-03    4.73      19.9  T
   4    -21.7462095 -0.944853E-08  0.798E-04    4.73      34.8  T
   5    -21.7462095 -0.221545E-08  0.316E-04    4.73      87.8  T
     SCC iter.                  ...        0 min,  0.103 sec
     gradient                   ...        0 min,  0.001 sec
 * total energy  :   -21.4577315 Eh     change       -0.1630797E-05 Eh
   gradient norm :     0.0004039 Eh/α   predicted    -0.7696058E-06 ( -52.81%)
   displ. norm   :     0.0127839 α      lambda       -0.5852662E-06
   maximum displ.:     0.0114610 α      in ANC's #2, #5, #4, ...

........................................................................
.............................. CYCLE   14 ..............................
........................................................................

 iter      E             dE          RMSdq      gap      omega  full diag
   1    -21.7462712 -0.217463E+02  0.142E-02    4.73       0.0  T
   2    -21.7462712 -0.324721E-07  0.796E-03    4.73       3.5  T
   3    -21.7462712 -0.115273E-07  0.619E-04    4.73      44.8  T
   4    -21.7462712 -0.247152E-09  0.399E-04    4.73      69.6  T
     SCC iter.                  ...        0 min,  0.099 sec
     gradient                   ...        0 min,  0.001 sec
 * total energy  :   -21.4577322 Eh     change       -0.6632408E-06 Eh
   gradient norm :     0.0001931 Eh/α   predicted    -0.2930158E-06 ( -55.82%)
   displ. norm   :     0.0086068 α      lambda       -0.2691361E-06
   maximum displ.:     0.0077471 α      in ANC's #2, #1, #5, ...

........................................................................
.............................. CYCLE   15 ..............................
........................................................................

 iter      E             dE          RMSdq      gap      omega  full diag
   1    -21.7462866 -0.217463E+02  0.965E-03    4.73       0.0  T
   2    -21.7462866 -0.154119E-07  0.540E-03    4.73       5.1  T
   3    -21.7462866 -0.441101E-08  0.499E-04    4.73      55.6  T
   4    -21.7462866 -0.863427E-09  0.310E-04    4.73      89.4  T
     SCC iter.                  ...        0 min,  0.106 sec
     gradient                   ...        0 min,  0.002 sec
 * total energy  :   -21.4577325 Eh     change       -0.3066551E-06 Eh
   gradient norm :     0.0001374 Eh/α   predicted    -0.1335914E-06 ( -56.44%)
   displ. norm   :     0.0054058 α      lambda       -0.1062067E-06
   maximum displ.:     0.0052434 α      in ANC's #2, #1, #5, ...

........................................................................
.............................. CYCLE   16 ..............................
........................................................................

 iter      E             dE          RMSdq      gap      omega  full diag
   1    -21.7463100 -0.217463E+02  0.553E-03    4.73       0.0  T
   2    -21.7463100 -0.593604E-08  0.309E-03    4.73       9.0  T
   3    -21.7463100 -0.489575E-09  0.439E-04    4.73      63.2  T
   4    -21.7463100 -0.154986E-08  0.181E-04    4.73     153.6  T
     SCC iter.                  ...        0 min,  0.121 sec
     gradient                   ...        0 min,  0.001 sec
 * total energy  :   -21.4577326 Eh     change       -0.1214649E-06 Eh
   gradient norm :     0.0000605 Eh/α   predicted    -0.5308458E-07 ( -56.30%)
   displ. norm   :     0.0037877 α      lambda       -0.4114285E-07
   maximum displ.:     0.0035515 α      in ANC's #2, #5, #4, ...

........................................................................
.............................. CYCLE   17 ..............................
........................................................................

 iter      E             dE          RMSdq      gap      omega  full diag
   1    -21.7462996 -0.217463E+02  0.347E-03    4.73       0.0  T
   2    -21.7462997 -0.226507E-08  0.194E-03    4.73      14.3  T
   3    -21.7462997 -0.606892E-09  0.203E-04    4.73     136.9  T
   4    -21.7462997 -0.133529E-09  0.124E-04    4.73     223.7  T
     SCC iter.                  ...        0 min,  0.099 sec
     gradient                   ...        0 min,  0.001 sec
 * total energy  :   -21.4577327 Eh     change       -0.4878168E-07 Eh
   gradient norm :     0.0000310 Eh/α   predicted    -0.2060584E-07 ( -57.76%)
   displ. norm   :     0.0025788 α      lambda       -0.1684514E-07
   maximum displ.:     0.0023530 α      in ANC's #2, #1, #4, ...

   *** GEOMETRY OPTIMIZATION CONVERGED AFTER 17 ITERATIONS ***

------------------------------------------------------------------------
 total energy gain   :        -0.0036610 Eh       -2.2973 kcal/mol
 total RMSD          :         0.1916238 a0        0.1014 Å
 total power (kW/mol):        -0.5654074 (step)   -4.3921 (real)
------------------------------------------------------------------------

 ANCopt (total)                0 d,  0 h,  0 min,  2.188 sec
 optimizer setup                ...        0 min,  0.000 sec (  0.006%)
 model hessian                  ...        0 min,  0.004 sec (  0.161%)
 ANC generation                 ...        0 min,  0.000 sec (  0.014%)
 coordinate transformation      ...        0 min,  0.000 sec (  0.008%)
 single point calculation       ...        0 min,  2.180 sec ( 99.595%)
 optimization log               ...        0 min,  0.001 sec (  0.062%)
 hessian update                 ...        0 min,  0.000 sec (  0.017%)
 rational function              ...        0 min,  0.002 sec (  0.092%)

================
 final structure:
================
13
 xtb: 6.7.0 (08769fc)
O           -0.14961641129864        1.55589883482256       -0.30543205775911
C           -0.40307817495728        0.44082714075773        0.50646851223808
C           -1.63608556718838       -0.23806907196222        0.11229441785996
N           -2.58730471850622       -0.77732883179852       -0.22198890886041
C            0.73660447901570       -0.58109899027115        0.44536441407038
C            2.13772206269200       -0.11129030695887        0.37791613069773
N            1.45158867930272       -0.58030227431870       -0.80813633196667
H            0.28855987563389        1.22810587721789       -1.10762959129180
H           -0.53287115413578        0.80914632174830        1.53488187018753
H            0.51429035299175       -1.51824187206884        0.94869064218383
H            2.91190257461137       -0.71986461763659        0.82908711821942
H            2.32864120667457        0.95375804993494        0.39487829334978
H            1.73766380126430       -1.49134089726653       -1.14806111672872
 
 Bond Distances (Angstroems)
 ---------------------------
O1-C2=1.4024         O1-H8=0.9711         C2-O1=1.4024         C2-C3=1.4617         C2-C5=1.5320         C2-H9=1.1001         
C3-C2=1.4617         C3-N4=1.1434         N4-C3=1.1434         C5-C2=1.5320         C5-C6=1.4793         C5-N7=1.4431         
C5-H10=1.0867        C6-C5=1.4793         C6-N7=1.4483         C6-H11=1.0832        C6-H12=1.0822        N7-C5=1.4431         
N7-C6=1.4483         N7-H13=1.0136        H8-O1=0.9711         H9-C2=1.1001         H10-C5=1.0867        H11-C6=1.0832        
H12-C6=1.0822        H13-N7=1.0136        
 C  H  Rav=1.0880 sigma=0.0072  Rmin=1.0822  Rmax=1.1001     4
 C  C  Rav=1.4910 sigma=0.0299  Rmin=1.4617  Rmax=1.5320     3
 N  H  Rav=1.0136 sigma=0.0000  Rmin=1.0136  Rmax=1.0136     1
 N  C  Rav=1.3449 sigma=0.1425  Rmin=1.1434  Rmax=1.4483     3
 O  H  Rav=0.9711 sigma=0.0000  Rmin=0.9711  Rmax=0.9711     1
 O  C  Rav=1.4024 sigma=0.0000  Rmin=1.4024  Rmax=1.4024     1
 
 selected bond angles (degree)
 --------------------
H8-O1-C2=106.94                C3-C2-O1=111.45                C5-C2-O1=111.89                C5-C2-C3=107.88                
H9-C2-O1=107.24                H9-C2-C3=107.94                H9-C2-C5=110.39                N4-C3-C2=178.48                
C6-C5-C2=119.64                N7-C5-C2=113.76                N7-C5-C6= 59.40                H10-C5-C2=113.86               
H10-C5-C6=119.26               H10-C5-N7=120.27               N7-C6-C5= 59.05                H11-C6-C5=118.65               
H11-C6-N7=119.85               H12-C6-C5=118.62               H12-C6-N7=114.53               H12-C6-H11=114.86              
C6-N7-C5= 61.55                H13-N7-C5=115.51               H13-N7-C6=115.60               
 
 selected dihedral angles (degree)
 ---------------------------------
C3-C2-O1-H8=276.80            C5-C2-O1-H8= 37.68            H9-C2-O1-H8=158.87            N4-C3-C2-O1= 67.57            
N4-C3-C2-C5=304.37            N4-C3-C2-H9=185.08            C6-C5-C2-O1= 38.12            C6-C5-C2-C3=161.05            
C6-C5-C2-H9=278.77            N7-C5-C2-O1=331.04            N7-C5-C2-C3= 93.97            N7-C5-C2-H9=211.69            
H10-C5-C2-O1=188.19           H10-C5-C2-C3=311.12           H10-C5-C2-H9= 68.85           N7-C6-C5-C2=258.35            
N7-C6-C5-H10=109.88           H11-C6-C5-C2=148.85           H11-C6-C5-N7=250.50           H11-C6-C5-H10=  0.38          
H12-C6-C5-C2=  1.31           H12-C6-C5-N7=102.96           H12-C6-C5-H10=212.84          C6-N7-C5-C2=111.56            
C6-N7-C5-H10=251.81           H13-N7-C5-C2=218.17           H13-N7-C5-C6=106.61           H13-N7-C5-H10=358.42          
C5-N7-C6-H11=107.49           C5-N7-C6-H12=250.11           H13-N7-C6-C5=253.53           H13-N7-C6-H11=  1.02          
H13-N7-C6-H12=143.64          
           -------------------------------------------------
          |                Final Singlepoint                |
           -------------------------------------------------

          ...................................................
          :                      SETUP                      :
          :.................................................:
          :  # basis functions                  34          :
          :  # atomic orbitals                  34          :
          :  # shells                           20          :
          :  # electrons                        38          :
          :  max. iterations                  4000          :
          :  Hamiltonian                  GFN2-xTB          :
          :  restarted?                      false          :
          :  GBSA solvation                   true          :
          :  PC potential                    false          :
          :  electronic temp.          300.0000000     K    :
          :  accuracy                    1.0000000          :
          :  -> integral cutoff          0.2500000E+02      :
          :  -> integral neglect         0.1000000E-07      :
          :  -> SCF convergence          0.1000000E-05 Eh   :
          :  -> wf. convergence          0.1000000E-03 e    :
          :  Broyden damping             0.4000000          :
          :  net charge                          0          :
          :  unpaired electrons                  0          :
          ...................................................

 iter      E             dE          RMSdq      gap      omega  full diag
   1    -21.7462997 -0.217463E+02  0.430E-05    4.73       0.0  T
   2    -21.7462997 -0.223821E-11  0.289E-05    4.73     959.6  T
   3    -21.7462997 -0.358824E-11  0.190E-05    4.73    1459.3  T

   *** convergence criteria satisfied after 3 iterations ***

         #    Occupation            Energy/Eh            Energy/eV
      -------------------------------------------------------------
         1        2.0000           -0.7128220             -19.3969
       ...           ...                  ...                  ...
        13        2.0000           -0.4935390             -13.4299
        14        2.0000           -0.4854968             -13.2110
        15        2.0000           -0.4683393             -12.7442
        16        2.0000           -0.4670768             -12.7098
        17        2.0000           -0.4589558             -12.4888
        18        2.0000           -0.4269803             -11.6187
        19        2.0000           -0.4033662             -10.9762 (HOMO)
        20                         -0.2296390              -6.2488 (LUMO)
        21                         -0.2226896              -6.0597
        22                         -0.0932966              -2.5387
        23                          0.0197016               0.5361
        24                          0.0574011               1.5620
       ...                                ...                  ...
        34                          1.1099654              30.2037
      -------------------------------------------------------------
                  HL-Gap            0.1737272 Eh            4.7274 eV
             Fermi-level           -0.3165026 Eh           -8.6125 eV

 SCC (total)                   0 d,  0 h,  0 min,  0.102 sec
 SCC setup                      ...        0 min,  0.000 sec (  0.171%)
 Dispersion                     ...        0 min,  0.000 sec (  0.039%)
 classical contributions        ...        0 min,  0.000 sec (  0.010%)
 integral evaluation            ...        0 min,  0.000 sec (  0.418%)
 iterations                     ...        0 min,  0.100 sec ( 98.090%)
 molecular gradient             ...        0 min,  0.001 sec (  1.122%)
 printout                       ...        0 min,  0.000 sec (  0.112%)

         :::::::::::::::::::::::::::::::::::::::::::::::::::::
         ::                     SUMMARY                     ::
         :::::::::::::::::::::::::::::::::::::::::::::::::::::
         :: total energy             -21.457732663311 Eh    ::
         :: total w/o Gsasa/hb       -21.449039640026 Eh    ::
         :: gradient norm              0.000035430618 Eh/a0 ::
         :: HOMO-LUMO gap              4.727357650983 eV    ::
         ::.................................................::
         :: SCC energy               -21.746289455195 Eh    ::
         :: -> isotropic ES            0.039319875511 Eh    ::
         :: -> anisotropic ES          0.002340568706 Eh    ::
         :: -> anisotropic XC          0.024465866613 Eh    ::
         :: -> dispersion             -0.007897729822 Eh    ::
         :: -> Gsolv                  -0.010707858042 Eh    ::
         ::    -> Gelec               -0.002014834757 Eh    ::
         ::    -> Gsasa               -0.010901166423 Eh    ::
         ::    -> Ghb                  0.000000000000 Eh    ::
         ::    -> Gshift               0.002208143139 Eh    ::
         :: repulsion energy           0.288556791884 Eh    ::
         :: add. restraining           0.000000000000 Eh    ::
         :: total charge               0.000000000000 e     ::
         :::::::::::::::::::::::::::::::::::::::::::::::::::::

           -------------------------------------------------
          |                Property Printout                |
           -------------------------------------------------

    * Orbital Energies and Occupations

         #    Occupation            Energy/Eh            Energy/eV
      -------------------------------------------------------------
         1        2.0000           -0.7128220             -19.3969
       ...           ...                  ...                  ...
         7        2.0000           -0.5870935             -15.9756
         8        2.0000           -0.5812014             -15.8153
         9        2.0000           -0.5554044             -15.1133
        10        2.0000           -0.5459706             -14.8566
        11        2.0000           -0.5126938             -13.9511
        12        2.0000           -0.4992441             -13.5851
        13        2.0000           -0.4935390             -13.4299
        14        2.0000           -0.4854968             -13.2110
        15        2.0000           -0.4683393             -12.7442
        16        2.0000           -0.4670768             -12.7098
        17        2.0000           -0.4589558             -12.4888
        18        2.0000           -0.4269803             -11.6187
        19        2.0000           -0.4033662             -10.9762 (HOMO)
        20                         -0.2296390              -6.2488 (LUMO)
        21                         -0.2226896              -6.0597
        22                         -0.0932966              -2.5387
        23                          0.0197016               0.5361
        24                          0.0574011               1.5620
        25                          0.0773675               2.1053
        26                          0.0986579               2.6846
        27                          0.1099527               2.9920
        28                          0.1527761               4.1572
        29                          0.1565883               4.2610
        30                          0.2009819               5.4690
       ...                                ...                  ...
        34                          1.1099654              30.2037
      -------------------------------------------------------------
                  HL-Gap            0.1737272 Eh            4.7274 eV
             Fermi-level           -0.3165026 Eh           -8.6125 eV

     #   Z          covCN         q      C6AA      α(0)
     1   8 O        1.656    -0.431    21.459     6.253
     2   6 C        3.729     0.120    18.709     6.175
     3   6 C        1.903     0.105    28.498     8.622
     4   7 N        0.911    -0.224    25.886     7.359
     5   6 C        3.798     0.042    19.880     6.349
     6   6 C        3.737     0.005    20.577     6.473
     7   7 N        2.677    -0.277    27.154     7.739
     8   1 H        0.804     0.321     0.662     1.278
     9   1 H        0.923     0.072     2.066     2.248
    10   1 H        0.925     0.025     2.665     2.553
    11   1 H        0.925     0.034     2.527     2.486
    12   1 H        0.925     0.062     2.175     2.306
    13   1 H        0.860     0.146     1.429     1.872

 Mol. C6AA /au·bohr⁶  :       1734.682215
 Mol. C8AA /au·bohr⁸  :      38996.776454
 Mol. α(0) /au        :         61.712590


Wiberg/Mayer (AO) data.
largest (>0.10) Wiberg bond orders for each atom

 ---------------------------------------------------------------------------
     #   Z sym  total        # sym  WBO       # sym  WBO       # sym  WBO
 ---------------------------------------------------------------------------
     1   8 O    1.976 --     2 C    1.002     8 H    0.869
     2   6 C    3.967 --     3 C    1.002     1 O    1.002     5 C    0.950
                             9 H    0.932
     3   6 C    3.937 --     4 N    2.869     2 C    1.002
     4   7 N    3.012 --     3 C    2.869
     5   6 C    3.937 --     7 N    0.981     6 C    0.977    10 H    0.967
                             2 C    0.950
     6   6 C    3.931 --     5 C    0.977     7 N    0.976    11 H    0.976
                            12 H    0.973
     7   7 N    2.996 --     5 C    0.981     6 C    0.976    13 H    0.959
     8   1 H    0.897 --     1 O    0.869
     9   1 H    0.995 --     2 C    0.932
    10   1 H    0.999 --     5 C    0.967
    11   1 H    0.998 --     6 C    0.976
    12   1 H    0.996 --     6 C    0.973
    13   1 H    0.979 --     7 N    0.959
 ---------------------------------------------------------------------------

Topologies differ in total number of bonds
Writing topology from bond orders to xtbtopo.mol

molecular dipole:
                 x           y           z       tot (Debye)
 q only:        1.183      -0.191       0.305
   full:        1.719      -0.496       0.538       4.748
molecular quadrupole (traceless):
                xx          xy          yy          xz          yz          zz
 q only:       -2.895      -1.949      -0.859      -0.806      -0.429       3.755
  q+dip:       -4.522      -4.967       0.659      -0.804       0.062       3.863
   full:       -5.388      -5.738       0.618      -1.658      -0.300       4.770

           -------------------------------------------------
          |                Geometry Summary                 |
           -------------------------------------------------

      molecular mass/u    :       98.1033994
   center of mass at/Å    :       -0.0098340      -0.0076207      -0.0054230
  moments of inertia/u·Å² :        0.9255828E+02   0.2622643E+03   0.3041524E+03
rotational constants/cm⁻¹ :        0.1821299E+00   0.6427727E-01   0.5542495E-01

 * 12 selected distances

     #   Z          #   Z                                           value/Å
     1   8 O        2   6 C                                       1.4024303
     3   6 C        4   7 N                                       1.1434004
     2   6 C        5   6 C                                       1.5319738 (max)
     5   6 C        6   6 C                                       1.4793243
     5   6 C        7   7 N                                       1.4430757
     6   6 C        7   7 N                                       1.4482652
     1   8 O        8   1 H                                       0.9710653 (min)
     2   6 C        9   1 H                                       1.1000634
     5   6 C       10   1 H                                       1.0867373
     6   6 C       11   1 H                                       1.0831776
     6   6 C       12   1 H                                       1.0821581
     7   7 N       13   1 H                                       1.0135973

 * 6 distinct bonds (by element types)

   Z      Z             #   av. dist./Å        max./Å        min./Å
   1 H    6 C           4     1.0880341     1.1000634     1.0821581
   6 C    6 C           2     1.5056490     1.5319738     1.4793243
   1 H    7 N           1     1.0135973     1.0135973     1.0135973
   6 C    7 N           3     1.3449138     1.4482652     1.1434004
   1 H    8 O           1     0.9710653     0.9710653     0.9710653
   6 C    8 O           1     1.4024303     1.4024303     1.4024303


optimized geometry written to: xtbopt.xyz


           -------------------------------------------------
          | TOTAL ENERGY              -21.457732663311 Eh   |
          | GRADIENT NORM               0.000035430618 Eh/α |
          | HOMO-LUMO GAP               4.727357650983 eV   |
           -------------------------------------------------

------------------------------------------------------------------------
 * finished run on 2024/08/07 at 20:37:11.777     
------------------------------------------------------------------------
 total:
 * wall-time:     0 d,  0 h,  0 min,  2.438 sec
 *  cpu-time:     0 d,  0 h,  0 min, 17.126 sec
 * ratio c/w:     7.024 speedup
 SCF:
 * wall-time:     0 d,  0 h,  0 min,  0.132 sec
 *  cpu-time:     0 d,  0 h,  0 min,  0.981 sec
 * ratio c/w:     7.456 speedup
 ANC optimizer:
 * wall-time:     0 d,  0 h,  0 min,  2.292 sec
 *  cpu-time:     0 d,  0 h,  0 min, 16.049 sec
 * ratio c/w:     7.003 speedup

