13
 energy: -21.454071673972 gnorm: 0.067391169996 xtb: 6.7.0 (08769fc)
O           -0.06313198640000        1.53699679660000       -0.28587416150000
C           -0.40546863990000        0.39682805970000        0.49156508000000
C           -1.65962455000000       -0.18598400900000        0.13025178180000
N           -2.66653785880000       -0.65868131310000       -0.18861048480000
C            0.74576114120000       -0.61217428210000        0.41334196050000
C            2.13235302140000       -0.09960852640000        0.39694345060000
N            1.52403981650000       -0.61006468440000       -0.81472836860000
H            0.08003323470000        1.25096603100000       -1.21253399050000
H           -0.48450494130000        0.76940884620000        1.52641067910000
H            0.54962079000000       -1.57764453670000        0.89598745710000
H            2.92605063110000       -0.68495271890000        0.86676727900000
H            2.27855409300000        0.97982622490000        0.44805961820000
H            1.84087225460000       -1.53471652560000       -1.10924690870000
13
 energy: -21.456555498635 gnorm: 0.018919796623 xtb: 6.7.0 (08769fc)
O           -0.11002794670066        1.55555775539425       -0.28879016609206
C           -0.39272801446220        0.40883196349365        0.49175431624140
C           -1.64390353567771       -0.21000263022737        0.11900120010927
N           -2.63744448481431       -0.67104586550169       -0.20263628078405
C            0.74949838721344       -0.61172989934811        0.42579086615883
C            2.13981576210437       -0.11200090339064        0.39621551536323
N            1.50640500718587       -0.60281677861319       -0.80956456846392
H            0.09241907330770        1.25902616763099       -1.19368883589824
H           -0.48930665995974        0.77670691513483        1.52584412480443
H            0.54162691985238       -1.56430912736695        0.91385178965961
H            2.91972294470590       -0.69794038820461        0.87318825981545
H            2.30094826423000        0.95968384428361        0.42044397576803
H            1.82099128911497       -1.51976169108478       -1.11307680448199
13
 energy: -21.457197761389 gnorm: 0.009613142484 xtb: 6.7.0 (08769fc)
O           -0.12883004978232        1.56637037173553       -0.28501220382839
C           -0.38786746611257        0.42785063677054        0.50098283840482
C           -1.64135648076681       -0.20394781043991        0.10707357663226
N           -2.60278464767184       -0.73242413488736       -0.21755864693181
C            0.74635198667768       -0.60086272412929        0.43319806155980
C            2.14398865466874       -0.11926043359764        0.39049371784373
N            1.48629551349065       -0.59709321629214       -0.80831094493354
H            0.13390831622058        1.25547139398006       -1.16891460917349
H           -0.50009662840519        0.79059912594813        1.53430513982489
H            0.52207354159420       -1.54130776458502        0.92769137813269
H            2.91675040861976       -0.71172920874362        0.86282135820071
H            2.31744440368121        0.94784592596578        0.40291014639839
H            1.79213945388591       -1.51131279952507       -1.12134641993008
13
 energy: -21.457333899014 gnorm: 0.015434527451 xtb: 6.7.0 (08769fc)
O           -0.15027733469120        1.56520654852638       -0.28345063184786
C           -0.38807448090159        0.43666023741644        0.51178650832763
C           -1.62506778543458       -0.24464755600146        0.10389134828371
N           -2.59894082936561       -0.73092990800595       -0.24267124696310
C            0.74743195086967       -0.58842844297277        0.44302688604914
C            2.14928257342898       -0.11775084480813        0.38198824846882
N            1.46801430816871       -0.59221481143336       -0.80665692299457
H            0.18644817489880        1.24033773882919       -1.14311209995864
H           -0.51951184888334        0.79524548244040        1.54344490597261
H            0.51433240092579       -1.51926071032742        0.94705642182257
H            2.92135562020869       -0.71577762158366        0.84471171163683
H            2.32923578966002        0.94749476644647        0.38768173632917
H            1.76378846721564       -1.50573551632612       -1.12936347292631
13
 energy: -21.457554929890 gnorm: 0.006328747167 xtb: 6.7.0 (08769fc)
O           -0.13834518031094        1.56511272979720       -0.28264092778644
C           -0.39118552493876        0.43818150801130        0.50990291689222
C           -1.63012357619032       -0.23049361515948        0.10257839452679
N           -2.58866183373758       -0.75180527877267       -0.23977300624901
C            0.74435568197600       -0.58719836447477        0.44330143097765
C            2.14584611631350       -0.11640771041527        0.38110443597613
N            1.46523868376247       -0.59337623796089       -0.80663582385006
H            0.19274705612201        1.24684342174671       -1.14100658009909
H           -0.52097204872212        0.79508654659723        1.54184426867983
H            0.51436514926498       -1.52008375695066        0.94920197609873
H            2.92016315021797       -0.71685018484547        0.84056198640670
H            2.32723015212046        0.94996735312323        0.39008639438700
H            1.75735918022235       -1.50877704849647       -1.13019207376044
13
 energy: -21.457635105982 gnorm: 0.005796294346 xtb: 6.7.0 (08769fc)
O           -0.13620125960487        1.56674207079071       -0.28108289738088
C           -0.39533156862035        0.44100325927737        0.51027604575613
C           -1.63034811901518       -0.22945134945028        0.10117232033383
N           -2.57863530174471       -0.76982922069047       -0.24303779015745
C            0.74141104809407       -0.58400745432989        0.44692727571282
C            2.14257415246970       -0.11442004338351        0.37671193539327
N            1.45629657471345       -0.59384442141757       -0.80639134423951
H            0.22207045671270        1.24947969349114       -1.12890796026576
H           -0.52969715105659        0.79678834558873        1.54174956002711
H            0.51575413995044       -1.51688329096520        0.95745015583976
H            2.91878836970235       -0.71748822352104        0.83153788321129
H            2.32768561785042        0.95206010972637        0.38508380893976
H            1.74365004664858       -1.50995011291636       -1.13315560097038
13
 energy: -21.457692132516 gnorm: 0.002523716039 xtb: 6.7.0 (08769fc)
O           -0.13560089494984        1.56572418627587       -0.28102904549651
C           -0.39981083987392        0.44135523043634        0.51102393020267
C           -1.62894459868647       -0.23390564526137        0.10032541947940
N           -2.57288009398464       -0.77655064011779       -0.24848609591696
C            0.73939556917283       -0.58179745421712        0.45127693696488
C            2.13932890097267       -0.11160316207114        0.37164615448204
N            1.44738602348592       -0.59423263623674       -0.80593659213328
H            0.25091253955542        1.24921294187028       -1.11399394640060
H           -0.53899645599487        0.79758068733663        1.54177863544503
H            0.52036697331010       -1.51435481152595        0.96669116292531
H            2.91724739533734       -0.71587123656550        0.82326167171335
H            2.32806622294970        0.95448676037022        0.37817544164804
H            1.73154626480574       -1.50984485809374       -1.13640028071337
13
 energy: -21.457709959979 gnorm: 0.002857005967 xtb: 6.7.0 (08769fc)
O           -0.14021005316060        1.56642252569494       -0.28188898946485
C           -0.40213104879121        0.44287909112599        0.51298285458906
C           -1.62768795286331       -0.23764893883030        0.09944662668328
N           -2.56860375667796       -0.78354116367561       -0.25294533353256
C            0.73814932786130       -0.57939731315220        0.45418692368764
C            2.13846956048927       -0.11091627346605        0.36835494820355
N            1.44113128106948       -0.59329658009727       -0.80574272354434
H            0.27206077880523        1.24634352842048       -1.10282428409209
H           -0.54415383368229        0.80021116409941        1.54323358303245
H            0.52083896136111       -1.51083144019308        0.97118929894497
H            2.91615603640596       -0.71606390381821        0.81875356963342
H            2.33063603886651        0.95418122991454        0.37249126535956
H            1.72336166641650       -1.50814256382264       -1.13890434730009
13
 energy: -21.457717938107 gnorm: 0.000961160800 xtb: 6.7.0 (08769fc)
O           -0.14274966607545        1.56561045093153       -0.28443455169986
C           -0.40244401032040        0.44235896020609        0.51344434953370
C           -1.62742071622105       -0.23908540002516        0.09988291763612
N           -2.56971048766901       -0.78164197166481       -0.25341026491026
C            0.73825080128393       -0.57923075506312        0.45428092096495
C            2.13874112443340       -0.11108599596200        0.36829421651842
N            1.44117574953299       -0.59237729813079       -0.80568963428897
H            0.27330103186359        1.24406936728918       -1.10002157212733
H           -0.54327920886682        0.80137182720104        1.54344280768671
H            0.52110226590160       -1.51056859010579        0.97030943020850
H            2.91568372368483       -0.71607833165931        0.81965080741516
H            2.33172460103954        0.95348420985332        0.37211377989546
H            1.72364179751283       -1.50662711067020       -1.13952981463260
13
 energy: -21.457722439818 gnorm: 0.001258482960 xtb: 6.7.0 (08769fc)
O           -0.14534839729209        1.56360841184913       -0.28759457518015
C           -0.40300123183436        0.44114998578784        0.51328844309662
C           -1.62935266553450       -0.23874525222034        0.10146038411591
N           -2.57323768876807       -0.77923546968453       -0.25014541489603
C            0.73828900850629       -0.57926366939565        0.45306091378186
C            2.13899299230621       -0.11092033435449        0.36928422338200
N            1.44278798734316       -0.59048817049023       -0.80613584771011
H            0.27697941615676        1.24019391074626       -1.09991741020562
H           -0.54150818732158        0.80190546068298        1.54292685331559
H            0.52049087481214       -1.51129303013186        0.96725377122306
H            2.91583641667077       -0.71588428572176        0.82077943576725
H            2.33139926198081        0.95369787662892        0.37443042116825
H            1.72568921907446       -1.50452607149628       -1.14035780565864
13
 energy: -21.457727117396 gnorm: 0.000902427548 xtb: 6.7.0 (08769fc)
O           -0.14729354463826        1.56052901690585       -0.29297477900857
C           -0.40291289992010        0.43974480111824        0.51185716996877
C           -1.63229173008744       -0.23759094411647        0.10476795392233
N           -2.57939371632150       -0.77591944146981       -0.24270373696637
C            0.73812270016151       -0.58022131013508        0.45036158332129
C            2.13878069506204       -0.11065274160446        0.37181911375991
N            1.44622941437088       -0.58775955602166       -0.80700621033260
H            0.27996595728080        1.23597507028828       -1.10224961813056
H           -0.53754043814498        0.80276705368255        1.54117352016937
H            0.51922104158717       -1.51407123556157        0.96135025088894
H            2.91550009324575       -0.71562795127305        0.82355020691239
H            2.32947033426515        0.95451497425272        0.38010091185842
H            1.73015909923897       -1.50148837386554       -1.14171297416332
13
 energy: -21.457729892279 gnorm: 0.000638840867 xtb: 6.7.0 (08769fc)
O           -0.14853951368267        1.55775094642644       -0.29760047802745
C           -0.40294242081654        0.43902973156415        0.50997968879447
C           -1.63452296002118       -0.23754081604679        0.10785097413133
N           -2.58438825502038       -0.77345242952166       -0.23545414491836
C            0.73778396610917       -0.58114488230695        0.44836373926221
C            2.13821981351314       -0.11031530160237        0.37387263211767
N            1.44845503819727       -0.58542216980007       -0.80764748812457
H            0.28480701580562        1.23241012833014       -1.10356181039645
H           -0.53551850958706        0.80403110410037        1.53897915823395
H            0.51840684354389       -1.51643136421740        0.95672384583531
H            2.91488847783582       -0.71556923230131        0.82524695098591
H            2.32762861487109        0.95515764139865        0.38513641971722
H            1.73373889535183       -1.49830399382321       -1.14355609541126
13
 energy: -21.457731523076 gnorm: 0.000404193194 xtb: 6.7.0 (08769fc)
O           -0.14898614292503        1.55635000721374       -0.30124532988145
C           -0.40288503134654        0.43954452485171        0.50832658628592
C           -1.63568358309674       -0.23761778824756        0.11008987159095
N           -2.58666915644569       -0.77417371123877       -0.22950435337253
C            0.73725723977567       -0.58149066621973        0.44700820278245
C            2.13781346326269       -0.11048968001863        0.37561097485028
N            1.44977695090609       -0.58331204034330       -0.80797346820142
H            0.28764548404866        1.23020968024966       -1.10483903111198
H           -0.53425186983774        0.80589040255707        1.53719088912626
H            0.51689526165098       -1.51761760375533        0.95313748913230
H            2.91382576173606       -0.71672987696142        0.82670875647243
H            2.32726837662897        0.95492020715106        0.38924287310831
H            1.73601025174262       -1.49528409303849       -1.14542006858153
13
 energy: -21.457732186317 gnorm: 0.000193995665 xtb: 6.7.0 (08769fc)
O           -0.14909942311362        1.55609715526535       -0.30303510232674
C           -0.40296867727773        0.44013786719835        0.50737029767454
C           -1.63592898090305       -0.23782477251068        0.11114519945853
N           -2.58701217315613       -0.77547527319005       -0.22617287149088
C            0.73694102567362       -0.58144325202316        0.44632708452726
C            2.13763915689986       -0.11072528907082        0.37652728928876
N            1.45044134602131       -0.58211397657113       -0.80807917229399
H            0.28856658995658        1.22936679138777       -1.10583575170611
H           -0.53382073413052        0.80720594321541        1.53610971003835
H            0.51588693806605       -1.51799638114530        0.95134359119468
H            2.91295843619994       -0.71794552991086        0.82755696066607
H            2.32761691602502        0.95455205319422        0.39165297645738
H            1.73679658583866       -1.49363597363910       -1.14657681928787
13
 energy: -21.457732492972 gnorm: 0.000138537613 xtb: 6.7.0 (08769fc)
O           -0.14927831810098        1.55609302600687       -0.30415656455834
C           -0.40303848209711        0.44062442362861        0.50693317305660
C           -1.63590742799488       -0.23804171221724        0.11167717262388
N           -2.58689754404759       -0.77673822712532       -0.22421425430201
C            0.73673157376931       -0.58121440816280        0.44592083554512
C            2.13766293011941       -0.11101777537525        0.37716161032424
N            1.45086133376224       -0.58121513983392       -0.80808889629702
H            0.28867225191669        1.22880171625553       -1.10660252118584
H           -0.53346951125293        0.80826550416289        1.53553239639679
H            0.51498412683300       -1.51799384461834        0.95014251850627
H            2.91237699183766       -0.71899592318388        0.82820858540593
H            2.32825966480619        0.95410556191408        0.39316093955122
H            1.73705941654898       -1.49247383925123       -1.14734160286684
13
 energy: -21.457732614437 gnorm: 0.000063028865 xtb: 6.7.0 (08769fc)
O           -0.14944569352897        1.55606861334445       -0.30485723249266
C           -0.40305957601572        0.44077898388248        0.50663826045233
C           -1.63596570219116       -0.23803623136406        0.11200794685859
N           -2.58701449834517       -0.77719396231259       -0.22290438216103
C            0.73666079564918       -0.58114144660759        0.44560053430013
C            2.13770741778593       -0.11121065204606        0.37760824809484
N            1.45129799303261       -0.58070335671021       -0.80810595748658
H            0.28839048787521        1.22850186200980       -1.10727482860056
H           -0.53312417841754        0.80881821023822        1.53512455694127
H            0.51456772614543       -1.51812775349921        0.94930827320803
H            2.91207569562148       -0.71957154977778        0.82874602267044
H            2.32852955028757        0.95385569007050        0.39419376543192
H            1.73739698820115       -1.49183904502795       -1.14775181501673
13
 energy: -21.457732663218 gnorm: 0.000035369271 xtb: 6.7.0 (08769fc)
O           -0.14961641129864        1.55589883482256       -0.30543205775911
C           -0.40307817495728        0.44082714075773        0.50646851223808
C           -1.63608556718838       -0.23806907196222        0.11229441785996
N           -2.58730471850622       -0.77732883179852       -0.22198890886041
C            0.73660447901570       -0.58109899027115        0.44536441407038
C            2.13772206269200       -0.11129030695887        0.37791613069773
N            1.45158867930272       -0.58030227431870       -0.80813633196667
H            0.28855987563389        1.22810587721789       -1.10762959129180
H           -0.53287115413578        0.80914632174830        1.53488187018753
H            0.51429035299175       -1.51824187206884        0.94869064218383
H            2.91190257461137       -0.71986461763659        0.82908711821942
H            2.32864120667457        0.95375804993494        0.39487829334978
H            1.73766380126430       -1.49134089726653       -1.14806111672872
