11
 energy: -17.722214769264 gnorm: 0.067519133685 xtb: 6.7.1 (edcfbbe)
C            2.04119238680000       -0.00000256850000        0.00446011530000
N            0.58010123700000        0.00016588330000       -0.00701156700000
N           -0.11163997430000       -1.13490159330000       -0.00163893100000
C           -1.34593043590000       -0.70700178980000        0.00219259280000
C           -1.34606943710000        0.70669899490000        0.00220193550000
N           -0.11197217300000        1.13504771580000       -0.00163877420000
H            2.41398833890000       -0.83779028100000       -0.57929213830000
H            2.40039253760000       -0.09009183460000        1.02664566440000
H            2.41299528570000        0.92768130950000       -0.42360352200000
H           -2.21293805490000       -1.35378562830000        0.00682847970000
H           -2.21324174660000        1.35328943570000        0.00689196760000
11
 energy: -17.725641570512 gnorm: 0.022601827025 xtb: 6.7.1 (edcfbbe)
C            2.04422343714594       -0.00075091155655        0.00713331942687
N            0.60096104832897        0.00017917429928       -0.01055084837671
N           -0.10538493296076       -1.11317732683229       -0.00581743715869
C           -1.35765852140001       -0.70209849406476        0.00334562655072
C           -1.35773482305060        0.70241470418292        0.00334594248404
N           -0.10543109360347        1.11352834260810       -0.00579235063794
H            2.40153435755019       -0.84489256053999       -0.57903335749266
H            2.40406031075867       -0.09103910258551        1.03239092319180
H            2.39491169392331        0.93491380643675       -0.42265253006442
H           -2.20622566383363       -1.36035377898975        0.00683143898063
H           -2.20637784865862        1.36058579074180        0.00683509589635
11
 energy: -17.726159209518 gnorm: 0.008146805742 xtb: 6.7.1 (edcfbbe)
C            2.03856676551705       -0.00081898480916        0.00643154260883
N            0.60622699203707       -0.00027178493616       -0.01007091070113
N           -0.10241728510330       -1.10418440538024       -0.00370400567326
C           -1.36324706066168       -0.69970194701007        0.00369318752931
C           -1.36290205705909        0.70018212952725        0.00364110636662
N           -0.10175168961409        1.10395365403894       -0.00376237721667
H            2.39358915914881       -0.84707427419250       -0.57835556874936
H            2.40374922459491       -0.09119423677728        1.03105859165046
H            2.38384956696854        0.93754181840566       -0.42178428028722
H           -2.19472630299764       -1.37310421036494        0.00451488874812
H           -2.19405934863058        1.37398188519850        0.00437364852431
11
 energy: -17.726241374729 gnorm: 0.005152971349 xtb: 6.7.1 (edcfbbe)
C            2.03520912793824       -0.00070460692514        0.00630940843554
N            0.60442132605910       -0.00065624916838       -0.00985453073166
N           -0.10282017028862       -1.10376218661378       -0.00459190657088
C           -1.36542197086974       -0.69892254033617        0.00335041007679
C           -1.36482670715655        0.69939513073444        0.00320486239329
N           -0.10174595064632        1.10299481663405       -0.00484165263648
H            2.39279301094537       -0.84670385356250       -0.57753915683524
H            2.40344337060149       -0.09118057291884        1.03041369861024
H            2.38217270602898        0.93764187656225       -0.42073506899895
H           -2.18877185917732       -1.38170528569387        0.00532335072671
H           -2.18757491923463        1.38291311498793        0.00499640833066
11
 energy: -17.726274087362 gnorm: 0.001386923227 xtb: 6.7.1 (edcfbbe)
C            2.03308247508715       -0.00060113109617        0.00577182613338
N            0.60181328343288       -0.00101777022688       -0.00837573409989
N           -0.10396590346666       -1.10461532639210       -0.00307752522054
C           -1.36716718243640       -0.69805546423748        0.00342759947211
C           -1.36637947759092        0.69851876683024        0.00308637997499
N           -0.10257422918538        1.10336661542379       -0.00360816162197
H            2.39261349916379       -0.84601465494802       -0.57815291928200
H            2.40326472134178       -0.09131763016935        1.02949103245184
H            2.38162192610473        0.93759547081833       -0.42081095753671
H           -2.18353283801127       -1.38961067480230        0.00448909084631
H           -2.18189831023969        1.39106144249994        0.00379519168248
11
 energy: -17.726275498230 gnorm: 0.000394268404 xtb: 6.7.1 (edcfbbe)
C            2.03368216767341       -0.00061990753277        0.00614918066514
N            0.60145740109951       -0.00102655208774       -0.00882735474000
N           -0.10443816000565       -1.10499942653873       -0.00401284792052
C           -1.36734933245401       -0.69777894055593        0.00329758486197
C           -1.36657628411032        0.69825983649005        0.00279818623907
N           -0.10306783402355        1.10377284272313       -0.00485845899739
H            2.39287735521908       -0.84572098836085       -0.57832893135711
H            2.40260584268949       -0.09163617129634        1.03008479285006
H            2.38196747249576        0.93764649443520       -0.42041915613114
H           -2.18294454714046       -1.39040126902081        0.00558035141434
H           -2.18133611724327        1.39181372544479        0.00457247591557
11
 energy: -17.726275700226 gnorm: 0.000146317634 xtb: 6.7.1 (edcfbbe)
C            2.03396876375313       -0.00063859276882        0.00597356125176
N            0.60167378410557       -0.00099553011684       -0.00849748104263
N           -0.10440513047398       -1.10489769278886       -0.00302145632707
C           -1.36731851637408       -0.69778970677722        0.00355744101038
C           -1.36656040184454        0.69828075751516        0.00290180805613
N           -0.10306125014420        1.10372440092740       -0.00403376957648
H            2.39268946615972       -0.84563957521157       -0.57886471255644
H            2.40270866050711       -0.09191613867313        1.02982576521481
H            2.38180378511012        0.93779194628291       -0.42050649259821
H           -2.18308988630026       -1.39019940961824        0.00500974320559
H           -2.18153131029857        1.39158918492920        0.00369141616216
11
 energy: -17.726275745779 gnorm: 0.000051393607 xtb: 6.7.1 (edcfbbe)
C            2.03393234136299       -0.00063969976414        0.00605053771904
N            0.60171019547103       -0.00099033439325       -0.00868618532452
N           -0.10437446637356       -1.10484678422844       -0.00327638828218
C           -1.36732181535671       -0.69782151669964        0.00355399854117
C           -1.36656134288344        0.69831476317840        0.00279733333448
N           -0.10302975107534        1.10368091241608       -0.00451010132530
H            2.39271930123159       -0.84552751146433       -0.57888455186311
H            2.40266578713427       -0.09213567559484        1.02988902344753
H            2.38178699847564        0.93788394959194       -0.42016165363731
H           -2.18310160252283       -1.39019552143530        0.00539537041792
H           -2.18154768126364        1.39158706209350        0.00386843977229
