11
 energy: -17.726275746083 gnorm: 0.000051983601 xtb: 6.7.1 (edcfbbe)
C            2.03393234136299       -0.00063969976414        0.00605053771904
N            0.60171019547103       -0.00099033439325       -0.00868618532452
N           -0.10437446637356       -1.10484678422844       -0.00327638828218
C           -1.36732181535671       -0.69782151669964        0.00355399854117
C           -1.36656134288344        0.69831476317840        0.00279733333448
N           -0.10302975107534        1.10368091241608       -0.00451010132530
H            2.39271930123159       -0.84552751146433       -0.57888455186311
H            2.40266578713427       -0.09213567559484        1.02988902344753
H            2.38178699847564        0.93788394959194       -0.42016165363731
H           -2.18310160252283       -1.39019552143530        0.00539537041792
H           -2.18154768126364        1.39158706209350        0.00386843977229
