      -----------------------------------------------------------      
     |                   =====================                   |     
     |                           x T B                           |     
     |                   =====================                   |     
     |                         S. Grimme                         |     
     |          Mulliken Center for Theoretical Chemistry        |     
     |                    University of Bonn                     |     
      -----------------------------------------------------------      

   * xtb version 6.5.1 (fef0646) compiled by 'conda@b96dff2e9fd6' on 2023-01-04

   xtb is free software: you can redistribute it and/or modify it under
   the terms of the GNU Lesser General Public License as published by
   the Free Software Foundation, either version 3 of the License, or
   (at your option) any later version.
   
   xtb is distributed in the hope that it will be useful,
   but WITHOUT ANY WARRANTY; without even the implied warranty of
   MERCHANTABILITY or FITNESS FOR A PARTICULAR PURPOSE.  See the
   GNU Lesser General Public License for more details.
   
   Cite this work as:
   * C. Bannwarth, E. Caldeweyher, S. Ehlert, A. Hansen, P. Pracht,
     J. Seibert, S. Spicher, S. Grimme, WIREs Comput. Mol. Sci., 2020, 11,
     e01493. DOI: 10.1002/wcms.1493
   
   for GFN2-xTB:
   * C. Bannwarth, S. Ehlert and S. Grimme., J. Chem. Theory Comput., 2019,
     15, 1652-1671. DOI: 10.1021/acs.jctc.8b01176
   for GFN1-xTB:
   * S. Grimme, C. Bannwarth, P. Shushkov, J. Chem. Theory Comput., 2017,
     13, 1989-2009. DOI: 10.1021/acs.jctc.7b00118
   for GFN0-xTB:
   * P. Pracht, E. Caldeweyher, S. Ehlert, S. Grimme, ChemRxiv, 2019, preprint.
     DOI: 10.26434/chemrxiv.8326202.v1
   for GFN-FF:
   * S. Spicher and S. Grimme, Angew. Chem. Int. Ed., 2020, 59, 15665-15673.
     DOI: 10.1002/anie.202004239
   
   for ALPB and GBSA implicit solvation:
   * S. Ehlert, M. Stahn, S. Spicher, S. Grimme, J. Chem. Theory Comput.,
     2021, 17, 4250-4261. DOI: 10.1021/acs.jctc.1c00471
   
   for DFT-D4:
   * E. Caldeweyher, C. Bannwarth and S. Grimme, J. Chem. Phys., 2017,
     147, 034112. DOI: 10.1063/1.4993215
   * E. Caldeweyher, S. Ehlert, A. Hansen, H. Neugebauer, S. Spicher,
     C. Bannwarth and S. Grimme, J. Chem. Phys., 2019, 150, 154122.
     DOI: 10.1063/1.5090222
   * E. Caldeweyher, J.-M. Mewes, S. Ehlert and S. Grimme, Phys. Chem. Chem. Phys.
     2020, 22, 8499-8512. DOI: 10.1039/D0CP00502A
   
   for sTDA-xTB:
   * S. Grimme and C. Bannwarth, J. Chem. Phys., 2016, 145, 054103.
     DOI: 10.1063/1.4959605
   
   in the mass-spec context:
   * V. Asgeirsson, C. Bauer and S. Grimme, Chem. Sci., 2017, 8, 4879.
     DOI: 10.1039/c7sc00601b
   * J. Koopman and S. Grimme, ACS Omega 2019, 4, 12, 15120-15133.
     DOI: 10.1021/acsomega.9b02011
   
   for metadynamics refer to:
   * S. Grimme, J. Chem. Theory Comput., 2019, 155, 2847-2862
     DOI: 10.1021/acs.jctc.9b00143
   
   for SPH calculations refer to:
   * S. Spicher and S. Grimme, J. Chem. Theory Comput., 2021, 17, 1701-1714
     DOI: 10.1021/acs.jctc.0c01306
   
   with help from (in alphabetical order)
   P. Atkinson, C. Bannwarth, F. Bohle, G. Brandenburg, E. Caldeweyher
   M. Checinski, S. Dohm, S. Ehlert, S. Ehrlich, I. Gerasimov, C. Hölzer
   A. Katbashev, J. Koopman, C. Lavigne, S. Lehtola, F. März, M. Müller,
   F. Musil, H. Neugebauer, J. Pisarek, C. Plett, P. Pracht, F. Pultar,
   J. Seibert, P. Shushkov, S. Spicher, M. Stahn, M. Steiner, T. Strunk,
   J. Stückrath, T. Rose, and J. Unsleber
   
 * started run on 2024/06/14 at 02:59:24.336     

           -------------------------------------------------
          |                Calculation Setup                |
           -------------------------------------------------

          program call               : xtb crest_best.xyz --opt normal -c 0 --iterations 4000
          coordinate file            : crest_best.xyz
          omp threads                :                     8

   ID    Z sym.   atoms
    1    6 C      1-4, 6-8, 10, 11, 13-17, 19-23
    2   16 S      5, 12
    3   34 Se     9
    4    8 O      18
    5    1 H      24-33

           -------------------------------------------------
          |                 G F N 2 - x T B                 |
           -------------------------------------------------

        Reference                      10.1021/acs.jctc.8b01176
      * Hamiltonian:
        H0-scaling (s, p, d)           1.850000    2.230000    2.230000
        zeta-weighting                 0.500000
      * Dispersion:
        s8                             2.700000
        a1                             0.520000
        a2                             5.000000
        s9                             5.000000
      * Repulsion:
        kExp                           1.500000    1.000000
        rExp                           1.000000
      * Coulomb:
        alpha                          2.000000
        third order                    shell-resolved
        anisotropic                    true
        a3                             3.000000
        a5                             4.000000
        cn-shift                       1.200000
        cn-exp                         4.000000
        max-rad                        5.000000


          ...................................................
          :                      SETUP                      :
          :.................................................:
          :  # basis functions                 120          :
          :  # atomic orbitals                 117          :
          :  # shells                           59          :
          :  # electrons                       110          :
          :  max. iterations                  4000          :
          :  Hamiltonian                  GFN2-xTB          :
          :  restarted?                      false          :
          :  GBSA solvation                  false          :
          :  PC potential                    false          :
          :  electronic temp.          300.0000000     K    :
          :  accuracy                    1.0000000          :
          :  -> integral cutoff          0.2500000E+02      :
          :  -> integral neglect         0.1000000E-07      :
          :  -> SCF convergence          0.1000000E-05 Eh   :
          :  -> wf. convergence          0.1000000E-03 e    :
          :  Broyden damping             0.4000000          :
          ...................................................

 iter      E             dE          RMSdq      gap      omega  full diag
   1    -60.0843213 -0.600843E+02  0.451E+00    2.44       0.0  T
   2    -60.1150532 -0.307319E-01  0.267E+00    2.14       1.0  T
   3    -60.0777016  0.373516E-01  0.143E+00    2.17       1.0  T
   4    -60.1278185 -0.501169E-01  0.448E-01    2.10       1.0  T
   5    -60.1306497 -0.283118E-02  0.240E-01    2.13       1.0  T
   6    -60.1314820 -0.832313E-03  0.122E-01    2.12       1.0  T
   7    -60.1317077 -0.225674E-03  0.397E-02    2.12       1.0  T
   8    -60.1317300 -0.223029E-04  0.211E-02    2.12       1.0  T
   9    -60.1317361 -0.610396E-05  0.958E-03    2.12       1.8  T
  10    -60.1317371 -0.100034E-05  0.411E-03    2.12       4.2  T
  11    -60.1317371 -0.723488E-07  0.250E-03    2.12       7.0  T
  12    -60.1317372 -0.803413E-07  0.118E-03    2.12      14.8  T
  13    -60.1317372 -0.127788E-07  0.574E-04    2.12      30.3  T
  14    -60.1317372 -0.237777E-08  0.307E-04    2.12      56.6  T

   *** convergence criteria satisfied after 14 iterations ***

         #    Occupation            Energy/Eh            Energy/eV
      -------------------------------------------------------------
         1        2.0000           -0.7539945             -20.5172
       ...           ...                  ...                  ...
        49        2.0000           -0.4116457             -11.2015
        50        2.0000           -0.4023158             -10.9476
        51        2.0000           -0.3989251             -10.8553
        52        2.0000           -0.3954893             -10.7618
        53        2.0000           -0.3913047             -10.6479
        54        2.0000           -0.3800046             -10.3405
        55        2.0000           -0.3552523              -9.6669 (HOMO)
        56                         -0.2772124              -7.5433 (LUMO)
        57                         -0.2493536              -6.7853
        58                         -0.2466416              -6.7115
        59                         -0.2423733              -6.5953
        60                         -0.2297371              -6.2515
       ...                                ...                  ...
       117                          0.7232353              19.6802
      -------------------------------------------------------------
                  HL-Gap            0.0780399 Eh            2.1236 eV
             Fermi-level           -0.3162324 Eh           -8.6051 eV

 SCC (total)                   0 d,  0 h,  0 min,  0.255 sec
 SCC setup                      ...        0 min,  0.007 sec (  2.688%)
 Dispersion                     ...        0 min,  0.000 sec (  0.180%)
 classical contributions        ...        0 min,  0.005 sec (  1.935%)
 integral evaluation            ...        0 min,  0.007 sec (  2.764%)
 iterations                     ...        0 min,  0.221 sec ( 86.746%)
 molecular gradient             ...        0 min,  0.014 sec (  5.314%)
 printout                       ...        0 min,  0.001 sec (  0.365%)

         :::::::::::::::::::::::::::::::::::::::::::::::::::::
         ::                     SUMMARY                     ::
         :::::::::::::::::::::::::::::::::::::::::::::::::::::
         :: total energy             -59.318941264017 Eh    ::
         :: gradient norm              0.099782928075 Eh/a0 ::
         :: HOMO-LUMO gap              2.123573596161 eV    ::
         ::.................................................::
         :: SCC energy               -60.131737237148 Eh    ::
         :: -> isotropic ES            0.008980067648 Eh    ::
         :: -> anisotropic ES          0.003620889740 Eh    ::
         :: -> anisotropic XC          0.023103269336 Eh    ::
         :: -> dispersion             -0.047864160434 Eh    ::
         :: repulsion energy           0.812725978646 Eh    ::
         :: add. restraining           0.000000000000 Eh    ::
         :: total charge              -0.000000000000 e     ::
         :::::::::::::::::::::::::::::::::::::::::::::::::::::

      ----------------------------------------------------------- 
     |                   =====================                   |
     |                        A N C O P T                        |
     |                   =====================                   |
     |               Approximate Normal Coordinate               |
     |                Rational Function Optimizer                |
      ----------------------------------------------------------- 

          ...................................................
          :                      SETUP                      :
          :.................................................:
          :   optimization level            normal          :
          :   max. optcycles                   200          :
          :   ANC micro-cycles                  20          :
          :   degrees of freedom                93          :
          :.................................................:
          :   RF solver                   davidson          :
          :   write xtbopt.log                true          :
          :   linear?                        false          :
          :   energy convergence         0.5000000E-05 Eh   :
          :   grad. convergence          0.1000000E-02 Eh/α :
          :   maximium RF displ.         1.0000000          :
          :   Hlow (freq-cutoff)         0.1000000E-01      :
          :   Hmax (freq-cutoff)         5.0000000          :
          :   S6 in model hess.         20.0000000          :
          ...................................................

generating ANC from model Hessian ...
Using Lindh-Hessian (1995)
 Shifting diagonal of input Hessian by    9.7587049134157094E-003
 Lowest  eigenvalues of input Hessian
    0.000000    0.000000    0.000000    0.000000    0.000000    0.000000
    0.010000    0.010218    0.011206    0.011530    0.012263    0.012861
    0.014006    0.017297    0.018872    0.021261    0.022693    0.025190
 Highest eigenvalues
    1.871623    1.874732    1.891074    1.907418    1.933208    1.943351


........................................................................
.............................. CYCLE    1 ..............................
........................................................................
   1    -60.1317372 -0.601317E+02  0.144E-04    2.12       0.0  T
   2    -60.1317372 -0.426112E-10  0.981E-05    2.12     177.4  T
   3    -60.1317372 -0.178495E-09  0.669E-05    2.12     260.3  T
     SCC iter.                  ...        0 min,  0.124 sec
     gradient                   ...        0 min,  0.010 sec
 * total energy  :   -59.3189413 Eh     change       -0.1010015E-08 Eh
   gradient norm :     0.0997826 Eh/α   predicted     0.0000000E+00 (-100.00%)
   displ. norm   :     0.4112714 α      lambda       -0.2748130E-01
   maximum displ.:     0.1868561 α      in ANC's #19, #27, #32, ...

........................................................................
.............................. CYCLE    2 ..............................
........................................................................
   1    -60.1752866 -0.601753E+02  0.405E-01    2.06       0.0  T
   2    -60.1753473 -0.607230E-04  0.239E-01    2.07       1.0  T
   3    -60.1746806  0.666703E-03  0.166E-01    2.06       1.0  T
   4    -60.1754564 -0.775728E-03  0.416E-02    2.07       1.0  T
   5    -60.1754771 -0.207240E-04  0.208E-02    2.07       1.0  T
   6    -60.1754788 -0.170067E-05  0.109E-02    2.07       1.6  T
   7    -60.1754818 -0.302493E-05  0.347E-03    2.07       5.0  T
   8    -60.1754819 -0.110784E-06  0.230E-03    2.07       7.6  T
   9    -60.1754819 -0.231498E-07  0.105E-03    2.07      16.6  T
  10    -60.1754819 -0.961131E-08  0.419E-04    2.07      41.5  T
  11    -60.1754819 -0.266451E-08  0.239E-04    2.07      72.9  T
     SCC iter.                  ...        0 min,  0.193 sec
     gradient                   ...        0 min,  0.012 sec
 * total energy  :   -59.3385815 Eh     change       -0.1964026E-01 Eh
   gradient norm :     0.0497495 Eh/α   predicted    -0.1606754E-01 ( -18.19%)
   displ. norm   :     0.3838997 α      lambda       -0.1174349E-01
   maximum displ.:     0.1595826 α      in ANC's #19, #18, #51, ...

........................................................................
.............................. CYCLE    3 ..............................
........................................................................
   1    -60.2056383 -0.602056E+02  0.325E-01    2.02       0.0  T
   2    -60.2056119  0.264473E-04  0.205E-01    2.02       1.0  T
   3    -60.2050763  0.535581E-03  0.162E-01    2.01       1.0  T
   4    -60.2058142 -0.737941E-03  0.261E-02    2.02       1.0  T
   5    -60.2058164 -0.218003E-05  0.168E-02    2.02       1.0  T
   6    -60.2058203 -0.388209E-05  0.847E-03    2.02       2.1  T
   7    -60.2058219 -0.162793E-05  0.245E-03    2.02       7.1  T
   8    -60.2058220 -0.313935E-07  0.166E-03    2.02      10.5  T
   9    -60.2058220 -0.879476E-08  0.777E-04    2.02      22.4  T
  10    -60.2058220 -0.701112E-08  0.343E-04    2.02      50.7  T
     SCC iter.                  ...        0 min,  0.183 sec
     gradient                   ...        0 min,  0.012 sec
 * total energy  :   -59.3455373 Eh     change       -0.6955775E-02 Eh
   gradient norm :     0.0226673 Eh/α   predicted    -0.6737115E-02 (  -3.14%)
   displ. norm   :     0.2645528 α      lambda       -0.2214033E-02
   maximum displ.:     0.1145809 α      in ANC's #4, #5, #7, ...

........................................................................
.............................. CYCLE    4 ..............................
........................................................................
   1    -60.2101550 -0.602102E+02  0.162E-01    2.01       0.0  T
   2    -60.2101597 -0.475719E-05  0.934E-02    2.00       1.0  T
   3    -60.2100516  0.108087E-03  0.675E-02    2.01       1.0  T
   4    -60.2101785 -0.126806E-03  0.122E-02    2.01       1.4  T
   5    -60.2101798 -0.130644E-05  0.745E-03    2.01       2.3  T
   6    -60.2101808 -0.108837E-05  0.306E-03    2.01       5.7  T
   7    -60.2101810 -0.198465E-06  0.111E-03    2.01      15.6  T
   8    -60.2101811 -0.185534E-07  0.580E-04    2.01      30.0  T
   9    -60.2101811 -0.227956E-08  0.274E-04    2.01      63.5  T
     SCC iter.                  ...        0 min,  0.169 sec
     gradient                   ...        0 min,  0.009 sec
 * total energy  :   -59.3469823 Eh     change       -0.1444961E-02 Eh
   gradient norm :     0.0139242 Eh/α   predicted    -0.1184975E-02 ( -17.99%)
   displ. norm   :     0.2969142 α      lambda       -0.1076676E-02
   maximum displ.:     0.1634144 α      in ANC's #4, #5, #7, ...

........................................................................
.............................. CYCLE    5 ..............................
........................................................................
   1    -60.2100648 -0.602101E+02  0.141E-01    2.01       0.0  T
   2    -60.2100662 -0.131547E-05  0.877E-02    2.01       1.0  T
   3    -60.2099772  0.889963E-04  0.699E-02    2.01       1.0  T
   4    -60.2100979 -0.120705E-03  0.131E-02    2.01       1.3  T
   5    -60.2101016 -0.376237E-05  0.565E-03    2.01       3.1  T
   6    -60.2101020 -0.397640E-06  0.319E-03    2.01       5.5  T
   7    -60.2101023 -0.227513E-06  0.111E-03    2.01      15.7  T
   8    -60.2101023 -0.846541E-08  0.540E-04    2.01      32.2  T
   9    -60.2101023 -0.307739E-08  0.318E-04    2.01      54.8  T
     SCC iter.                  ...        0 min,  0.162 sec
     gradient                   ...        0 min,  0.011 sec
 * total energy  :   -59.3476325 Eh     change       -0.6502841E-03 Eh
   gradient norm :     0.0086382 Eh/α   predicted    -0.5857969E-03 (  -9.92%)
   displ. norm   :     0.2234964 α      lambda       -0.4513169E-03
   maximum displ.:     0.1295090 α      in ANC's #4, #5, #6, ...

........................................................................
.............................. CYCLE    6 ..............................
........................................................................
   1    -60.2097475 -0.602097E+02  0.919E-02    2.01       0.0  T
   2    -60.2097484 -0.877861E-06  0.577E-02    2.01       1.0  T
   3    -60.2097100  0.383899E-04  0.454E-02    2.01       1.0  T
   4    -60.2097606 -0.506055E-04  0.992E-03    2.01       1.8  T
   5    -60.2097630 -0.243665E-05  0.360E-03    2.01       4.8  T
   6    -60.2097632 -0.127652E-06  0.183E-03    2.01       9.5  T
   7    -60.2097632 -0.702945E-07  0.697E-04    2.01      25.0  T
   8    -60.2097633 -0.723791E-08  0.360E-04    2.01      48.3  T
     SCC iter.                  ...        0 min,  0.160 sec
     gradient                   ...        0 min,  0.009 sec
 * total energy  :   -59.3479019 Eh     change       -0.2693209E-03 Eh
   gradient norm :     0.0065714 Eh/α   predicted    -0.2369422E-03 ( -12.02%)
   displ. norm   :     0.1762940 α      lambda       -0.2338658E-03
   maximum displ.:     0.1001057 α      in ANC's #4, #5, #7, ...

........................................................................
.............................. CYCLE    7 ..............................
........................................................................
   1    -60.2087473 -0.602087E+02  0.658E-02    2.01       0.0  T
   2    -60.2087473  0.470648E-07  0.391E-02    2.01       1.0  T
   3    -60.2087220  0.252576E-04  0.304E-02    2.01       1.0  T
   4    -60.2087502 -0.282111E-04  0.474E-03    2.01       3.7  T
   5    -60.2087505 -0.277997E-06  0.255E-03    2.01       6.8  T
   6    -60.2087506 -0.711414E-07  0.109E-03    2.01      16.0  T
   7    -60.2087506 -0.323488E-07  0.290E-04    2.01      60.1  T
   8    -60.2087506 -0.120771E-08  0.145E-04    2.01     120.4  T
     SCC iter.                  ...        0 min,  0.289 sec
     gradient                   ...        0 min,  0.067 sec
 * total energy  :   -59.3480530 Eh     change       -0.1511562E-03 Eh
   gradient norm :     0.0056578 Eh/α   predicted    -0.1205696E-03 ( -20.24%)
   displ. norm   :     0.1292039 α      lambda       -0.1141671E-03
   maximum displ.:     0.0674650 α      in ANC's #4, #2, #5, ...

........................................................................
.............................. CYCLE    8 ..............................
........................................................................
   1    -60.2091996 -0.602092E+02  0.496E-02    2.01       0.0  T
   2    -60.2092002 -0.639097E-06  0.288E-02    2.01       1.0  T
   3    -60.2091893  0.108787E-04  0.202E-02    2.01       1.0  T
   4    -60.2092015 -0.121490E-04  0.441E-03    2.01       3.9  T
   5    -60.2092018 -0.321512E-06  0.206E-03    2.01       8.4  T
   6    -60.2092018 -0.446936E-07  0.889E-04    2.01      19.6  T
   7    -60.2092019 -0.159925E-07  0.329E-04    2.01      52.9  T
     SCC iter.                  ...        0 min,  0.209 sec
     gradient                   ...        0 min,  0.022 sec
 * total energy  :   -59.3481286 Eh     change       -0.7556220E-04 Eh
   gradient norm :     0.0040469 Eh/α   predicted    -0.5803695E-04 ( -23.19%)
   displ. norm   :     0.0937850 α      lambda       -0.5216181E-04
   maximum displ.:     0.0544585 α      in ANC's #2, #4, #1, ...

........................................................................
.............................. CYCLE    9 ..............................
........................................................................
   1    -60.2100333 -0.602100E+02  0.312E-02    2.01       0.0  T
   2    -60.2100338 -0.521765E-06  0.178E-02    2.01       1.0  T
   3    -60.2100301  0.368960E-05  0.121E-02    2.01       1.4  T
   4    -60.2100343 -0.421791E-05  0.304E-03    2.01       5.7  T
   5    -60.2100345 -0.151615E-06  0.154E-03    2.01      11.3  T
   6    -60.2100345 -0.336098E-07  0.580E-04    2.01      30.0  T
   7    -60.2100345 -0.619381E-08  0.243E-04    2.01      71.5  T
     SCC iter.                  ...        0 min,  0.201 sec
     gradient                   ...        0 min,  0.011 sec
 * total energy  :   -59.3481647 Eh     change       -0.3609872E-04 Eh
   gradient norm :     0.0021528 Eh/α   predicted    -0.2631327E-04 ( -27.11%)
   displ. norm   :     0.0741889 α      lambda       -0.2831890E-04
   maximum displ.:     0.0515460 α      in ANC's #2, #1, #4, ...

........................................................................
.............................. CYCLE   10 ..............................
........................................................................
   1    -60.2105325 -0.602105E+02  0.233E-02    2.01       0.0  T
   2    -60.2105329 -0.367779E-06  0.131E-02    2.00       1.3  T
   3    -60.2105311  0.174186E-05  0.830E-03    2.01       2.1  T
   4    -60.2105331 -0.195272E-05  0.241E-03    2.00       7.2  T
   5    -60.2105332 -0.107056E-06  0.120E-03    2.00      14.5  T
   6    -60.2105332 -0.235016E-07  0.359E-04    2.00      48.5  T
   7    -60.2105332 -0.186635E-08  0.148E-04    2.00     117.5  T
     SCC iter.                  ...        0 min,  0.165 sec
     gradient                   ...        0 min,  0.009 sec
 * total energy  :   -59.3481854 Eh     change       -0.2067842E-04 Eh
   gradient norm :     0.0014517 Eh/α   predicted    -0.1423899E-04 ( -31.14%)
   displ. norm   :     0.0984534 α      lambda       -0.1941221E-04
   maximum displ.:     0.0711826 α      in ANC's #2, #1, #4, ...

........................................................................
.............................. CYCLE   11 ..............................
........................................................................
   1    -60.2109853 -0.602110E+02  0.289E-02    2.01       0.0  T
   2    -60.2109856 -0.298112E-06  0.163E-02    2.00       1.1  T
   3    -60.2109846  0.996952E-06  0.637E-03    2.00       2.7  T
   4    -60.2109857 -0.112068E-05  0.201E-03    2.00       8.6  T
   5    -60.2109857 -0.171336E-07  0.144E-03    2.00      12.1  T
   6    -60.2109857 -0.485974E-07  0.335E-04    2.00      52.0  T
   7    -60.2109857 -0.163855E-08  0.156E-04    2.00     111.9  T
     SCC iter.                  ...        0 min,  0.152 sec
     gradient                   ...        0 min,  0.009 sec
 * total energy  :   -59.3482061 Eh     change       -0.2074361E-04 Eh
   gradient norm :     0.0022347 Eh/α   predicted    -0.9751084E-05 ( -52.99%)
   displ. norm   :     0.0561661 α      lambda       -0.1568102E-04
   maximum displ.:     0.0397346 α      in ANC's #2, #1, #6, ...

........................................................................
.............................. CYCLE   12 ..............................
........................................................................
   1    -60.2107213 -0.602107E+02  0.158E-02    2.01       0.0  T
   2    -60.2107213 -0.302254E-07  0.904E-03    2.01       1.9  T
   3    -60.2107208  0.548868E-06  0.444E-03    2.01       3.9  T
   4    -60.2107213 -0.596720E-06  0.980E-04    2.01      17.8  T
   5    -60.2107214 -0.565650E-08  0.599E-04    2.01      29.1  T
     SCC iter.                  ...        0 min,  0.132 sec
     gradient                   ...        0 min,  0.009 sec
 * total energy  :   -59.3482200 Eh     change       -0.1394261E-04 Eh
   gradient norm :     0.0019701 Eh/α   predicted    -0.7869482E-05 ( -43.56%)
   displ. norm   :     0.1397432 α      lambda       -0.2563775E-04
   maximum displ.:     0.0947593 α      in ANC's #2, #1, #6, ...

........................................................................
.............................. CYCLE   13 ..............................
........................................................................
   1    -60.2103540 -0.602104E+02  0.411E-02    2.01       0.0  T
   2    -60.2103543 -0.231607E-06  0.237E-02    2.01       1.0  T
   3    -60.2103480  0.622974E-05  0.150E-02    2.01       1.2  T
   4    -60.2103548 -0.677459E-05  0.258E-03    2.01       6.8  T
   5    -60.2103549 -0.827519E-07  0.144E-03    2.01      12.1  T
   6    -60.2103549 -0.300182E-07  0.545E-04    2.01      31.9  T
   7    -60.2103549 -0.535844E-08  0.219E-04    2.01      79.3  T
     SCC iter.                  ...        0 min,  0.142 sec
     gradient                   ...        0 min,  0.009 sec
 * total energy  :   -59.3482482 Eh     change       -0.2817350E-04 Eh
   gradient norm :     0.0014034 Eh/α   predicted    -0.1293159E-04 ( -54.10%)
   displ. norm   :     0.1290374 α      lambda       -0.1654010E-04
   maximum displ.:     0.0910351 α      in ANC's #2, #1, #6, ...

........................................................................
.............................. CYCLE   14 ..............................
........................................................................
   1    -60.2098536 -0.602099E+02  0.369E-02    2.01       0.0  T
   2    -60.2098538 -0.181905E-06  0.210E-02    2.01       1.0  T
   3    -60.2098512  0.265030E-05  0.972E-03    2.01       1.8  T
   4    -60.2098540 -0.284203E-05  0.213E-03    2.01       8.2  T
   5    -60.2098540 -0.442471E-07  0.120E-03    2.01      14.5  T
   6    -60.2098541 -0.268602E-07  0.356E-04    2.01      49.0  T
   7    -60.2098541 -0.225121E-08  0.163E-04    2.01     106.7  T
     SCC iter.                  ...        0 min,  0.146 sec
     gradient                   ...        0 min,  0.010 sec
 * total energy  :   -59.3482680 Eh     change       -0.1978402E-04 Eh
   gradient norm :     0.0015798 Eh/α   predicted    -0.8336148E-05 ( -57.86%)
   displ. norm   :     0.1392828 α      lambda       -0.1608122E-04
   maximum displ.:     0.0987567 α      in ANC's #2, #1, #4, ...

........................................................................
.............................. CYCLE   15 ..............................
........................................................................
   1    -60.2101098 -0.602101E+02  0.396E-02    2.01       0.0  T
   2    -60.2101100 -0.233392E-06  0.225E-02    2.01       1.0  T
   3    -60.2101092  0.801980E-06  0.610E-03    2.01       2.9  T
   4    -60.2101101 -0.855120E-06  0.214E-03    2.01       8.1  T
   5    -60.2101101 -0.531985E-07  0.106E-03    2.01      16.4  T
   6    -60.2101102 -0.183085E-07  0.420E-04    2.01      41.5  T
   7    -60.2101102 -0.459434E-08  0.154E-04    2.01     113.2  T
     SCC iter.                  ...        0 min,  0.157 sec
     gradient                   ...        0 min,  0.010 sec
 * total energy  :   -59.3482874 Eh     change       -0.1941571E-04 Eh
   gradient norm :     0.0011551 Eh/α   predicted    -0.8111055E-05 ( -58.22%)
   displ. norm   :     0.1759849 α      lambda       -0.1610775E-04
   maximum displ.:     0.1234363 α      in ANC's #2, #1, #4, ...

........................................................................
.............................. CYCLE   16 ..............................
........................................................................
   1    -60.2102073 -0.602102E+02  0.497E-02    2.01       0.0  T
   2    -60.2102077 -0.342082E-06  0.282E-02    2.01       1.0  T
   3    -60.2102066  0.103413E-05  0.695E-03    2.01       2.5  T
   4    -60.2102077 -0.109658E-05  0.265E-03    2.01       6.6  T
   5    -60.2102078 -0.842942E-07  0.127E-03    2.01      13.7  T
   6    -60.2102078 -0.272537E-07  0.486E-04    2.01      35.8  T
   7    -60.2102079 -0.614419E-08  0.163E-04    2.01     106.8  T
     SCC iter.                  ...        0 min,  0.150 sec
     gradient                   ...        0 min,  0.011 sec
 * total energy  :   -59.3483053 Eh     change       -0.1784040E-04 Eh
   gradient norm :     0.0010873 Eh/α   predicted    -0.8168010E-05 ( -54.22%)
   displ. norm   :     0.1763140 α      lambda       -0.1095443E-04
   maximum displ.:     0.1220026 α      in ANC's #2, #1, #5, ...

........................................................................
.............................. CYCLE   17 ..............................
........................................................................
   1    -60.2102111 -0.602102E+02  0.490E-02    2.01       0.0  T
   2    -60.2102115 -0.361769E-06  0.279E-02    2.01       1.0  T
   3    -60.2102094  0.203053E-05  0.898E-03    2.01       1.9  T
   4    -60.2102116 -0.217441E-05  0.282E-03    2.01       6.2  T
   5    -60.2102117 -0.854565E-07  0.137E-03    2.01      12.7  T
   6    -60.2102117 -0.359913E-07  0.564E-04    2.01      30.9  T
   7    -60.2102117 -0.722680E-08  0.183E-04    2.01      95.0  T
     SCC iter.                  ...        0 min,  0.168 sec
     gradient                   ...        0 min,  0.016 sec
 * total energy  :   -59.3483148 Eh     change       -0.9521814E-05 Eh
   gradient norm :     0.0008981 Eh/α   predicted    -0.5553557E-05 ( -41.68%)
   displ. norm   :     0.0788513 α      lambda       -0.3907229E-05
   maximum displ.:     0.0564530 α      in ANC's #1, #2, #5, ...

........................................................................
.............................. CYCLE   18 ..............................
........................................................................
   1    -60.2105200 -0.602105E+02  0.217E-02    2.01       0.0  T
   2    -60.2105200 -0.552704E-07  0.124E-02    2.01       1.4  T
   3    -60.2105193  0.700488E-06  0.525E-03    2.01       3.3  T
   4    -60.2105201 -0.767582E-06  0.106E-03    2.01      16.5  T
   5    -60.2105201 -0.211576E-08  0.695E-04    2.01      25.0  T
   6    -60.2105201 -0.877577E-08  0.259E-04    2.01      67.3  T
     SCC iter.                  ...        0 min,  0.152 sec
     gradient                   ...        0 min,  0.009 sec
 * total energy  :   -59.3483179 Eh     change       -0.3162325E-05 Eh
   gradient norm :     0.0006647 Eh/α   predicted    -0.1961545E-05 ( -37.97%)
   displ. norm   :     0.0210854 α      lambda       -0.1184860E-05
   maximum displ.:     0.0153406 α      in ANC's #1, #6, #2, ...

   *** GEOMETRY OPTIMIZATION CONVERGED AFTER 18 ITERATIONS ***

------------------------------------------------------------------------
 total energy gain   :        -0.0293767 Eh      -18.4341 kcal/mol
 total RMSD          :         0.3539880 a0        0.1873 Å
 total power (kW/mol):        -4.2849146 (step)  -21.9075 (real)
------------------------------------------------------------------------

 ANCopt (total)                0 d,  0 h,  0 min,  3.521 sec
 optimizer setup                ...        0 min,  0.000 sec (  0.003%)
 model hessian                  ...        0 min,  0.006 sec (  0.163%)
 ANC generation                 ...        0 min,  0.003 sec (  0.075%)
 coordinate transformation      ...        0 min,  0.000 sec (  0.014%)
 single point calculation       ...        0 min,  3.469 sec ( 98.529%)
 optimization log               ...        0 min,  0.004 sec (  0.103%)
 hessian update                 ...        0 min,  0.018 sec (  0.505%)
 rational function              ...        0 min,  0.002 sec (  0.070%)

================
 final structure:
================
33
 xtb: 6.5.1 (fef0646)
C           -5.93087790282814       -0.70649410409782       -1.23769728616275
C           -6.57818128799234       -0.24949265214736       -0.13824747958582
C           -5.68988513269549        0.17389154973268        0.87745965901928
C           -4.38325453881851        0.02938300864446        0.53147676791924
S           -4.22086609238372       -0.63328880511572       -1.06263503130510
C           -3.16355708836706        0.38666117292819        1.32155663278187
C           -2.40437803164426        1.52099498358960        0.67822705402995
C           -1.17792128660991        1.08302733709804        0.36986870247461
Se           0.38204016119157        1.77647340709213       -0.44621959303767
C            1.11326304365434        0.04578242447396       -0.16232045418130
C            0.27768757833648       -0.82240055220187        0.47414497113045
S            0.93189715749109       -2.44528863206349        0.78575684297639
C            2.33829077446935       -1.96915557560335       -0.13120140910763
C            3.18179660997985       -2.33185470374421       -1.10084672757904
C            3.44387174009185       -0.89692174491769       -1.53173079241320
C            4.55658138161559       -0.22257249338103       -0.76977362474060
C            5.79535953471988        0.20041935107023       -0.43771798023251
O            5.72189347078721        0.83156158484368        0.76518033410452
C            4.44054335157627        0.80106005506250        1.21558833312453
C            3.68997701504370        0.15616649238144        0.29572801657861
C            2.47249786851154       -0.47304144669968       -0.34614769039944
C           -1.01734561624246       -0.31539595237638        0.78705410271668
C           -2.16111762876692       -0.73361244001895        1.35649809294809
H           -6.34772186469836       -1.08664386124478       -2.14880772677181
H           -7.64869722051473       -0.21205024883840       -0.04620227511630
H           -6.01351053867393        0.56703802353366        1.82502091954216
H           -2.84068041139476        2.48458494004436        0.49666803068858
H            3.60334000133296       -3.25856706196259       -1.43292751056852
H            3.24886066299952       -0.62959128327667       -2.56273619965480
H            6.75977928241000        0.16390371051060       -0.90243522007002
H            4.24637355396026        1.27966478952391        2.15357483870621
H           -3.47994370580103        0.66120924501785        2.33390314225377
H           -2.38302011194006       -1.70464740635842        1.75621275393262

 Bond Distances (Angstroems)
 ---------------------------
C1-C2=1.3552         C1-S5=1.7205         C1-H24=1.0716        C2-C1=1.3552         C2-C3=1.4142         C2-H25=1.0751        
C3-C2=1.4142         C3-C4=1.3594         C3-H26=1.0757        C4-C3=1.3594         C4-S5=1.7340         C4-C6=1.4965         
S5-C1=1.7205         S5-C4=1.7340         C6-C4=1.4965         C6-C7=1.5090         C6-C23=1.5037        C6-H32=1.0956        
C7-C6=1.5090         C7-C8=1.3383         C7-H27=1.0732        C8-C7=1.3383         C8-Se9=1.8922        C8-C22=1.4681        
Se9-C8=1.8922        Se9-C10=1.9002       C10-Se9=1.9002       C10-C11=1.3627       C10-C21=1.4665       C11-C10=1.3627       
C11-S12=1.7773       C11-C22=1.4255       S12-C11=1.7773       S12-C13=1.7451       C13-S12=1.7451       C13-C14=1.3354       
C13-C21=1.5174       C14-C13=1.3354       C14-C15=1.5210       C14-H28=1.0709       C15-C14=1.5210       C15-C16=1.5078       
C15-C21=1.5902       C15-H29=1.0828       C16-C15=1.5078       C16-C17=1.3505       C16-C20=1.4247       C17-C16=1.3505       
C17-O18=1.3604       C17-H30=1.0712       O18-C17=1.3604       O18-C19=1.3585       C19-O18=1.3585       C19-C20=1.3511       
C19-H31=1.0708       C20-C16=1.4247       C20-C19=1.3511       C20-C21=1.5133       C21-C10=1.4665       C21-C13=1.5174       
C21-C15=1.5902       C21-C20=1.5133       C22-C8=1.4681        C22-C11=1.4255       C22-C23=1.3444       C23-C6=1.5037        
C23-C22=1.3444       C23-H33=1.0733       H24-C1=1.0716        H25-C2=1.0751        H26-C3=1.0757        H27-C7=1.0732        
H28-C14=1.0709       H29-C15=1.0828       H30-C17=1.0712       H31-C19=1.0708       H32-C6=1.0956        H33-C23=1.0733       
 C  H  Rav=1.0760 sigma=0.0074  Rmin=1.0708  Rmax=1.0956    10
 C  C  Rav=1.4359 sigma=0.0773  Rmin=1.3354  Rmax=1.5902    21
 O  C  Rav=1.3595 sigma=0.0009  Rmin=1.3585  Rmax=1.3604     2
 S  C  Rav=1.7442 sigma=0.0210  Rmin=1.7205  Rmax=1.7773     4
 Se C  Rav=1.8962 sigma=0.0040  Rmin=1.8922  Rmax=1.9002     2

 selected bond angles (degree)
 --------------------
S5-C1-C2=112.20                H24-C1-C2=128.58               H24-C1-S5=119.22               C3-C2-C1=112.56                
H25-C2-C1=123.83               H25-C2-C3=123.61               C4-C3-C2=112.90                H26-C3-C2=123.58               
H26-C3-C4=123.52               S5-C4-C3=111.38                C6-C4-C3=128.58                C6-C4-S5=120.02                
C4-S5-C1= 90.96                C7-C6-C4=111.37                C23-C6-C4=112.19               C23-C6-C7=103.57               
H32-C6-C4=108.20               H32-C6-C7=110.54               H32-C6-C23=110.96              C8-C7-C6=108.26                
H27-C7-C6=122.86               H27-C7-C8=128.86               Se9-C8-C7=137.30               C22-C8-C7=110.27               
C22-C8-Se9=112.42              C10-Se9-C8= 85.36              C11-C10-Se9=114.46             C21-C10-Se9=131.32             
C21-C10-C11=113.67             

 selected dihedral angles (degree)
 ---------------------------------
C3-C2-C1-S5=  0.03            C3-C2-C1-H24=179.96           H25-C2-C1-S5=180.03           H25-C2-C1-H24=359.96          
C4-C3-C2-C1=359.93            C4-C3-C2-H25=179.93           H26-C3-C2-C1=180.05           H26-C3-C2-H25=  0.05          
S5-C4-C3-C2=  0.07            S5-C4-C3-H26=179.95           C6-C4-C3-C2=178.73            C6-C4-C3-H26=358.61           
C4-S5-C1-C2=  0.00            C4-S5-C1-H24=180.07           C1-S5-C4-C3=359.96            C1-S5-C4-C6=181.16            
C7-C6-C4-C3=246.96            C7-C6-C4-S5= 65.52            C23-C6-C4-C3=131.38           C23-C6-C4-S5=309.95           
H32-C6-C4-C3=  8.64           H32-C6-C4-S5=187.21           C8-C7-C6-C4=240.69            C8-C7-C6-C23=  1.46           
C8-C7-C6-H32=120.37           H27-C7-C6-C4= 58.90           H27-C7-C6-C23=179.68          H27-C7-C6-H32=298.59          
Se9-C8-C7-C6=179.15           Se9-C8-C7-H27=  1.07          C22-C8-C7-C6=359.03           C22-C8-C7-H27=180.96          
C10-Se9-C8-C7=180.82          C10-Se9-C8-C22=  0.93         C11-C10-Se9-C8=358.42         C21-C10-Se9-C8=187.62         
           -------------------------------------------------
          |                Final Singlepoint                |
           -------------------------------------------------

          ...................................................
          :                      SETUP                      :
          :.................................................:
          :  # basis functions                 120          :
          :  # atomic orbitals                 117          :
          :  # shells                           59          :
          :  # electrons                       110          :
          :  max. iterations                  4000          :
          :  Hamiltonian                  GFN2-xTB          :
          :  restarted?                      false          :
          :  GBSA solvation                  false          :
          :  PC potential                    false          :
          :  electronic temp.          300.0000000     K    :
          :  accuracy                    1.0000000          :
          :  -> integral cutoff          0.2500000E+02      :
          :  -> integral neglect         0.1000000E-07      :
          :  -> SCF convergence          0.1000000E-05 Eh   :
          :  -> wf. convergence          0.1000000E-03 e    :
          :  Broyden damping             0.4000000          :
          ...................................................

 iter      E             dE          RMSdq      gap      omega  full diag
   1    -60.2105201 -0.602105E+02  0.897E-05    2.01       0.0  T
   2    -60.2105201  0.201865E-10  0.752E-05    2.01     231.6  T
   3    -60.2105201 -0.974723E-10  0.415E-05    2.01     419.5  T

   *** convergence criteria satisfied after 3 iterations ***

         #    Occupation            Energy/Eh            Energy/eV
      -------------------------------------------------------------
         1        2.0000           -0.7549848             -20.5442
       ...           ...                  ...                  ...
        49        2.0000           -0.4152516             -11.2996
        50        2.0000           -0.4053386             -11.0298
        51        2.0000           -0.4002047             -10.8901
        52        2.0000           -0.3967245             -10.7954
        53        2.0000           -0.3930228             -10.6947
        54        2.0000           -0.3778734             -10.2825
        55        2.0000           -0.3527958              -9.6001 (HOMO)
        56                         -0.2790415              -7.5931 (LUMO)
        57                         -0.2491228              -6.7790
        58                         -0.2446495              -6.6573
        59                         -0.2392656              -6.5107
        60                         -0.2253727              -6.1327
       ...                                ...                  ...
       117                          0.7594329              20.6652
      -------------------------------------------------------------
                  HL-Gap            0.0737543 Eh            2.0070 eV
             Fermi-level           -0.3159186 Eh           -8.5966 eV

 SCC (total)                   0 d,  0 h,  0 min,  0.136 sec
 SCC setup                      ...        0 min,  0.006 sec (  4.281%)
 Dispersion                     ...        0 min,  0.000 sec (  0.310%)
 classical contributions        ...        0 min,  0.001 sec (  0.483%)
 integral evaluation            ...        0 min,  0.003 sec (  2.429%)
 iterations                     ...        0 min,  0.116 sec ( 85.469%)
 molecular gradient             ...        0 min,  0.008 sec (  6.163%)
 printout                       ...        0 min,  0.001 sec (  0.831%)

         :::::::::::::::::::::::::::::::::::::::::::::::::::::
         ::                     SUMMARY                     ::
         :::::::::::::::::::::::::::::::::::::::::::::::::::::
         :: total energy             -59.348317945684 Eh    ::
         :: gradient norm              0.000664094436 Eh/a0 ::
         :: HOMO-LUMO gap              2.006956204970 eV    ::
         ::.................................................::
         :: SCC energy               -60.210520087719 Eh    ::
         :: -> isotropic ES            0.010299448137 Eh    ::
         :: -> anisotropic ES          0.002553711631 Eh    ::
         :: -> anisotropic XC          0.022331326008 Eh    ::
         :: -> dispersion             -0.048196855027 Eh    ::
         :: repulsion energy           0.862204010866 Eh    ::
         :: add. restraining           0.000000000000 Eh    ::
         :: total charge              -0.000000000000 e     ::
         :::::::::::::::::::::::::::::::::::::::::::::::::::::

           -------------------------------------------------
          |                Property Printout                |
           -------------------------------------------------

    * Orbital Energies and Occupations

         #    Occupation            Energy/Eh            Energy/eV
      -------------------------------------------------------------
         1        2.0000           -0.7549848             -20.5442
       ...           ...                  ...                  ...
        43        2.0000           -0.4524538             -12.3119
        44        2.0000           -0.4478740             -12.1873
        45        2.0000           -0.4379405             -11.9170
        46        2.0000           -0.4343492             -11.8192
        47        2.0000           -0.4249481             -11.5634
        48        2.0000           -0.4188109             -11.3964
        49        2.0000           -0.4152516             -11.2996
        50        2.0000           -0.4053386             -11.0298
        51        2.0000           -0.4002047             -10.8901
        52        2.0000           -0.3967245             -10.7954
        53        2.0000           -0.3930228             -10.6947
        54        2.0000           -0.3778734             -10.2825
        55        2.0000           -0.3527958              -9.6001 (HOMO)
        56                         -0.2790415              -7.5931 (LUMO)
        57                         -0.2491228              -6.7790
        58                         -0.2446495              -6.6573
        59                         -0.2392656              -6.5107
        60                         -0.2253727              -6.1327
        61                         -0.2196656              -5.9774
        62                         -0.2033831              -5.5343
        63                         -0.2020692              -5.4986
        64                         -0.1732145              -4.7134
        65                         -0.1673931              -4.5550
        66                         -0.1454526              -3.9580
       ...                                ...                  ...
       117                          0.7594329              20.6652
      -------------------------------------------------------------
                  HL-Gap            0.0737543 Eh            2.0070 eV
             Fermi-level           -0.3159186 Eh           -8.5966 eV

     #   Z          covCN         q      C6AA      α(0)
     1   6 C        2.941    -0.021    28.542     8.762
     2   6 C        3.114    -0.045    28.954     8.815
     3   6 C        3.116    -0.055    29.201     8.852
     4   6 C        2.997     0.025    27.431     8.591
     5  16 S        2.326    -0.028   142.191    20.070
     6   6 C        3.972    -0.011    20.707     6.465
     7   6 C        2.975    -0.050    29.240     8.870
     8   6 C        3.062     0.018    27.536     8.605
     9  34 Se       2.136    -0.074   238.221    26.894
    10   6 C        3.069    -0.000    27.966     8.671
    11   6 C        3.087     0.028    27.283     8.562
    12  16 S        2.078    -0.107   145.532    20.304
    13   6 C        3.296     0.038    25.483     8.091
    14   6 C        3.133    -0.055    29.132     8.835
    15   6 C        4.421    -0.003    20.540     6.436
    16   6 C        3.281    -0.037    27.399     8.421
    17   6 C        2.988     0.064    26.548     8.452
    18   8 O        1.742    -0.188    17.130     5.589
    19   6 C        2.982     0.067    26.484     8.442
    20   6 C        3.317    -0.036    26.723     8.236
    21   6 C        4.432     0.023    20.107     6.368
    22   6 C        3.144     0.001    27.741     8.618
    23   6 C        2.976    -0.047    29.149     8.856
    24   1 H        0.926     0.046     2.366     2.406
    25   1 H        0.926     0.040     2.448     2.447
    26   1 H        0.926     0.036     2.503     2.474
    27   1 H        0.926     0.044     2.391     2.418
    28   1 H        0.926     0.044     2.401     2.423
    29   1 H        0.925     0.054     2.270     2.356
    30   1 H        0.926     0.054     2.271     2.357
    31   1 H        0.926     0.055     2.256     2.349
    32   1 H        0.924     0.071     2.074     2.252
    33   1 H        0.926     0.046     2.366     2.405

 Mol. C6AA /au·bohr⁶  :      24488.377430
 Mol. C8AA /au·bohr⁸  :     800692.693971
 Mol. α(0) /au        :        253.691714


Wiberg/Mayer (AO) data.
largest (>0.10) Wiberg bond orders for each atom

 ---------------------------------------------------------------------------
     #   Z sym  total        # sym  WBO       # sym  WBO       # sym  WBO
 ---------------------------------------------------------------------------
     1   6 C    3.946 --     2 C    1.635     5 S    1.191    24 H    0.970
                             4 C    0.113
     2   6 C    3.986 --     1 C    1.635     3 C    1.264    25 H    0.965
     3   6 C    3.982 --     4 C    1.599     2 C    1.264    26 H    0.965
     4   6 C    3.943 --     3 C    1.599     5 S    1.162     6 C    0.979
                             1 C    0.113
     5  16 S    2.616 --     1 C    1.191     4 C    1.162
     6   6 C    3.995 --    23 C    1.011     7 C    0.994     4 C    0.979
                            32 H    0.920
     7   6 C    3.983 --     8 C    1.737     6 C    0.994    27 H    0.969
                            23 C    0.123
     8   6 C    3.958 --     7 C    1.737     9 Se   1.062    22 C    1.053
     9  34 Se   2.499 --    10 C    1.067     8 C    1.062
    10   6 C    3.951 --    11 C    1.596     9 Se   1.067    21 C    1.031
    11   6 C    3.954 --    10 C    1.596    22 C    1.139    12 S    1.014
    12  16 S    2.407 --    13 C    1.056    11 C    1.014    14 C    0.107
    13   6 C    3.942 --    14 C    1.803    12 S    1.056    21 C    0.945
    14   6 C    3.967 --    13 C    1.803    15 C    0.986    28 H    0.968
                            12 S    0.107
    15   6 C    3.969 --    14 C    0.986    16 C    0.983    29 H    0.954
                            21 C    0.911
    16   6 C    3.970 --    17 C    1.612    20 C    1.212    15 C    0.983
    17   6 C    3.904 --    16 C    1.612    18 O    1.114    30 H    0.964
                            19 C    0.140
    18   8 O    2.431 --    19 C    1.119    17 C    1.114
    19   6 C    3.907 --    20 C    1.601    18 O    1.119    31 H    0.964
                            17 C    0.140
    20   6 C    3.961 --    19 C    1.601    16 C    1.212    21 C    0.953
    21   6 C    3.972 --    10 C    1.031    20 C    0.953    13 C    0.945
                            15 C    0.911
    22   6 C    3.984 --    23 C    1.675    11 C    1.139     8 C    1.053
    23   6 C    3.971 --    22 C    1.675     6 C    1.011    33 H    0.969
                             7 C    0.123
    24   1 H    0.998 --     1 C    0.970
    25   1 H    0.998 --     2 C    0.965
    26   1 H    0.999 --     3 C    0.965
    27   1 H    0.997 --     7 C    0.969
    28   1 H    0.997 --    14 C    0.968
    29   1 H    0.997 --    15 C    0.954
    30   1 H    0.997 --    17 C    0.964
    31   1 H    0.997 --    19 C    0.964
    32   1 H    0.994 --     6 C    0.920
    33   1 H    0.998 --    23 C    0.969
 ---------------------------------------------------------------------------

Topologies differ in total number of bonds
Writing topology from bond orders to xtbtopo.mol

molecular dipole:
                 x           y           z       tot (Debye)
 q only:       -0.469       0.031      -0.062
   full:       -0.656       0.125       0.069       1.705
molecular quadrupole (traceless):
                xx          xy          yy          xz          yz          zz
 q only:        6.121      -2.871      -6.752      -7.219       3.272       0.631
  q+dip:       13.415      -4.477     -12.719     -10.146       6.167      -0.696
   full:       11.988      -4.852     -11.243      -9.288       5.002      -0.745

           -------------------------------------------------
          |                Geometry Summary                 |
           -------------------------------------------------

      molecular mass/u    :      397.3717579
   center of mass at/Å    :       -0.0228038       0.0029742      -0.0144445
  moments of inertia/u·Å² :        0.9651850E+03   0.4969661E+04   0.5381811E+04
rotational constants/cm⁻¹ :        0.1746570E-01   0.3392109E-02   0.3132335E-02

 * 33 selected distances

     #   Z          #   Z                                           value/Å
     1   6 C        2   6 C                                       1.3552277
     2   6 C        3   6 C                                       1.4142085
     3   6 C        4   6 C                                       1.3593641
     1   6 C        5  16 S                                       1.7205077
     4   6 C        5  16 S                                       1.7339830
     7   6 C        8   6 C                                       1.3383187
     8   6 C        9  34 Se                                      1.8921807 (max)
    10   6 C       11   6 C                                       1.3627240
    12  16 S       13   6 C                                       1.7451243
    13   6 C       14   6 C                                       1.3353895
    14   6 C       15   6 C                                       1.5209791
    15   6 C       16   6 C                                       1.5077960
    16   6 C       17   6 C                                       1.3504646
    17   6 C       18   8 O                                       1.3604053
    18   8 O       19   6 C                                       1.3585493
    16   6 C       20   6 C                                       1.4246896
    19   6 C       20   6 C                                       1.3510666
    10   6 C       21   6 C                                       1.4664550
    13   6 C       21   6 C                                       1.5174226
    15   6 C       21   6 C                                       1.5902357
    20   6 C       21   6 C                                       1.5133284
    11   6 C       22   6 C                                       1.4255094
    22   6 C       23   6 C                                       1.3443907
     1   6 C       24   1 H                                       1.0716320
     2   6 C       25   1 H                                       1.0751181
     3   6 C       26   1 H                                       1.0757184
     7   6 C       27   1 H                                       1.0732331
    14   6 C       28   1 H                                       1.0708746
    15   6 C       29   1 H                                       1.0828053
    17   6 C       30   1 H                                       1.0711681
    19   6 C       31   1 H                                       1.0707863 (min)
     6   6 C       32   1 H                                       1.0955924
    23   6 C       33   1 H                                       1.0732761

 * 5 distinct bonds (by element types)

   Z      Z             #   av. dist./Å        max./Å        min./Å
   1 H    6 C          10     1.0760204     1.0955924     1.0707863
   6 C    6 C          17     1.4222100     1.5902357     1.3353895
   6 C    8 O           2     1.3594773     1.3604053     1.3585493
   6 C   16 S           3     1.7332050     1.7451243     1.7205077
   6 C   34 Se          1     1.8921807     1.8921807     1.8921807


optimized geometry written to: xtbopt.xyz


           -------------------------------------------------
          | TOTAL ENERGY              -59.348317945684 Eh   |
          | GRADIENT NORM               0.000664094436 Eh/α |
          | HOMO-LUMO GAP               2.006956204970 eV   |
           -------------------------------------------------

------------------------------------------------------------------------
 * finished run on 2024/06/14 at 02:59:28.280     
------------------------------------------------------------------------
 total:
 * wall-time:     0 d,  0 h,  0 min,  3.944 sec
 *  cpu-time:     0 d,  0 h,  0 min, 19.022 sec
 * ratio c/w:     4.823 speedup
 SCF:
 * wall-time:     0 d,  0 h,  0 min,  0.255 sec
 *  cpu-time:     0 d,  0 h,  0 min,  1.372 sec
 * ratio c/w:     5.378 speedup
 ANC optimizer:
 * wall-time:     0 d,  0 h,  0 min,  3.658 sec
 *  cpu-time:     0 d,  0 h,  0 min, 17.460 sec
 * ratio c/w:     4.773 speedup

