17
 energy: -27.160979853687 gnorm: 0.000086788326 xtb: 6.7.0 (08769fc)
C            1.06619648282770        0.26095754054276        0.48900751292639
C            2.49928749539072       -0.04662614484447        0.07025561940055
C            3.22888671597192        1.20157219121218       -0.46248432479036
C            2.51968583428933        1.87087027774119       -1.59911223592437
C            2.18673676520158        3.14052917933330       -1.34994857772566
C            2.62109293118833        3.54342581688910       -0.01308851115282
O            2.49089776986323        4.60805082404782        0.54444392294558
C            3.31660630193171        2.30023082957781        0.58488038066132
O            3.82598572678664        2.23263859209218        1.67037987355019
H            0.59038565326142       -0.63809883476616        0.87291727747222
H            0.48347413131010        0.62628968470359       -0.35429031569067
H            1.04788894279094        1.01762795974372        1.27179282448467
H            2.50099418832542       -0.81316822287659       -0.70709109896966
H            3.05871247083032       -0.42540075068648        0.92759889099270
H            4.24208029108947        0.90235700640245       -0.75638242518631
H            2.30736861909042        1.33463659979567       -2.51015601307751
H            1.67000967985072        3.81285745109198       -2.01206279991626
