13
 energy: -28.587595309061 gnorm: 0.000043563114 xtb: 6.7.0 (08769fc)
C            1.15466771543952       -0.07226544464687        0.14113656191881
C            2.63599806262736       -0.04741366078911       -0.18929656798161
O            3.28265390805934       -1.24379132868970        0.34199745694413
C            4.17559548928996       -0.76129916551374        1.19983300082051
C            4.18374988425472        0.62084021123948        1.23341841590027
O            3.26555344672295        1.11709253779431        0.36592394115558
N            5.10506605748337        0.98660434916042        2.12013500068107
N            5.64052242902601       -0.03848510298711        2.61041604981069
O            5.06323469898791       -1.21983670315964        2.03841002713097
H            0.70679532870720       -0.96442391963927       -0.28615507152944
H            0.68508941081968        0.81342622171343       -0.27641634666364
H            1.01539861743687       -0.07713419800852        1.21987164149045
H            2.80279495114513       -0.04502379647367       -1.27663410967783
