13
 energy: -26.308504221530 gnorm: 0.000030206473 xtb: 6.7.0 (08769fc)
N            1.04481120197571        0.07677593055365        0.20248825123512
C            2.41300985786166        0.00781709957618        0.07857431207240
C            3.23888386482252       -1.08656717750762        0.04796355491619
C            4.55890471989169       -0.56374401660288        0.01805292058458
C            4.44675149199006        0.83863803736088        0.03200933414310
N            3.15176450426704        1.19232480192733        0.05866301347302
O            5.64360208764575        1.38862903531972       -0.00313901488218
N            6.53789858240418        0.24115832142656       -0.03911264408327
N            5.88199432439608       -0.81295120982086       -0.02539088386377
H            0.56979891458509       -0.78639428555338       -0.01199350007055
H            0.60885798720204        0.88626118203313       -0.21411514213269
H            2.94539062430828       -2.11467165458820        0.05381047932669
H            2.76694183864992        2.12055393587550        0.12232931928137
