16
 energy: -27.454070623356 gnorm: 0.000066481302 xtb: 6.7.0 (08769fc)
C            1.00532343333244       -0.17205075275497        0.00658887413757
C            2.50476795856275       -0.09491533049278        0.00772786757511
C            3.27814201453757       -1.23721963298837        0.00771637530283
O            4.59096530230222       -1.22121788476738        0.00867777240175
C            5.25541523955351       -0.06440028505954        0.00974666659618
C            4.63688005752397        1.19514992692662        0.00993720410092
O            5.22541599954129        2.29800601314976        0.01093016985697
C            3.16623956486588        1.13780833519692        0.00883997719005
N            2.55969184379130        2.32904716023638        0.00899725419952
H            0.68081992978121       -1.20842651486748        0.00572561900443
H            0.59941084431633        0.31923779921494       -0.87712371819403
H            0.59812446173561        0.31816896010872        0.89030444875442
H            2.86110999849313       -2.23319119040206        0.00690643441619
H            6.32751358216995       -0.17999022802183        0.01047519793799
H            3.18548836747884        3.12369396287055        0.00987610429212
H            1.56372140201401        2.44715966165052        0.00839375242799
