16
 energy: -29.020246733718 gnorm: 0.000034953179 xtb: 6.7.0 (08769fc)
C            1.07192493463865       -0.02448390256380        0.09430849699097
N            2.50597389910927       -0.04654322743853       -0.07039915840963
C            3.10339546407132       -0.01007553241351       -1.28003536708483
N            2.59439200508312        0.04733980576575       -2.44395592621171
N            4.51277782196613       -0.03968947797953       -1.26974672077981
C            5.36183049555162       -0.10111538583487       -0.23142767353275
O            5.06880487812780       -0.14471263251529        0.95340417360324
C            6.82103412710555       -0.11309207202618       -0.67618996352134
O            7.16786092483734       -0.07214526756077       -1.82399675913742
H            0.84281362804389       -0.06290327029520        1.15515820559389
H            0.60838989380210       -0.88505467237926       -0.39763110743579
H            0.64394819331407        0.89089797438647       -0.32562033563465
H            3.09714464980732       -0.09249692507339        0.74783146935296
H            1.58221484238585        0.06942447042707       -2.46475405126361
H            4.91558603962797       -0.00924808805802       -2.20274544124324
H            7.52791820252800       -0.16365179644093        0.16851015871374
