15
 energy: -27.730654907936 gnorm: 0.000040397208 xtb: 6.7.0 (08769fc)
O            1.19145273985014        0.34828587382313        0.45570439403953
C            2.26820947190300       -0.06225145735058        0.01277047763994
O            2.79500660642367       -1.18018196678419        0.05522585173798
C            3.12036890705735        1.01921213633814       -0.73522775122389
C            2.82337321645798        2.31958411788016       -0.94775860367942
C            3.90371291818807        2.92092639062285       -1.67893236821658
N            3.98409350343122        4.17963962383425       -2.07514442619227
N            4.83397274303073        2.00128951093339       -1.90337040739513
C            4.44728222789885        0.72863043494830       -1.34322219845183
H            1.93258181775609        2.82276804446686       -0.62628201825788
H            3.23423857781930        4.81714370560462       -1.86523215703116
H            4.78114775799699        4.52372297999395       -2.58643672959764
H            5.70125961065347        2.14903286578081       -2.39528446522245
H            5.15416925007041        0.37249321900053       -0.58841467889223
H            4.36718065146274       -0.05476547909220       -2.10223491925696
