11
 energy: -22.459532258765 gnorm: 0.000085896931 xtb: 6.7.0 (08769fc)
N            3.10575382457432        1.37959852456734       -0.67094820410075
C            3.73945483791086        0.45759284158611       -1.25638852912690
N            4.59019228872155        0.84512273876127       -2.26522668023469
C            5.70605852073907        0.29957951194916       -2.62158526712437
N            5.96204303264708       -0.98594375353433       -2.44140389561989
N            5.43947729202316       -1.84699997202031       -1.71332785725739
C            4.43637038231953       -1.81392669487965       -0.85834685995149
N            3.54997144151010       -0.86903964857155       -0.89831050300773
H            2.47461307726354        1.05279616411724        0.05506805187115
H            6.35841563063888        0.82814286297797       -3.29744153469040
H            4.23952967165193       -2.71390257495325       -0.29876872075755
