11
 energy: -27.089465193904 gnorm: 0.000180274634 xtb: 6.7.0 (08769fc)
N            0.54782707508374       -0.26040919188538        0.68313302375172
C            0.74309226680742       -1.18335174475900       -0.13843151786715
N           -0.19526120011539       -1.98089090912665       -0.68678330461589
N           -0.29676415138439       -3.18384775993947       -0.80375936750987
O            0.53072932997792       -4.06276443602844       -0.12149782165407
N            1.73508608269094       -3.80437101608566        0.38299181646848
C            2.47486120891334       -2.81477228365430        0.06061901540489
C            2.10891546758259       -1.64567686038341       -0.75305780553724
O            2.64424403020115       -1.13784383684816       -1.69276950637695
H            1.34359652862936        0.32981885033791        0.90017706149099
H            3.44675336161340       -2.80416081162742        0.54044840644512
