16
 energy: -23.402253163516 gnorm: 0.000067876524 xtb: 6.7.0 (08769fc)
C            1.27444054275116        1.34168905586115        0.15381509538242
C            0.24422911583945        0.69885696414339        0.87765488470552
C           -0.45867581831473       -0.18885743547877       -0.16115334369034
C           -0.34357374909700        0.77550041571105       -1.42603853088845
C            0.47916892691134        2.02041141905980       -0.90480007115952
C           -0.88435432909284        2.44291207195562       -0.31552150709905
C           -1.00209525520842        1.58229621153776        0.94904804575625
C           -1.77225735140098        0.55513898792702        0.11321449769018
N           -1.64487722997921        1.42411830931444       -1.10234140518791
H            2.20821840054697        0.86212740041703       -0.08926415594550
H           -0.33793590071104       -1.25816976100962       -0.28730666652529
H           -0.22622240257415        0.35408891282458       -2.42335588075934
H            0.95983017351955        2.65453813195512       -1.64100007691336
H           -1.21321842640642        3.47492496379379       -0.33768827760561
H           -1.34806139537767        1.99265845053262        1.88970435887995
H           -2.72167530140601        0.09751590145500        0.36676303336005
