13
 energy: -26.303414819581 gnorm: 0.000029189101 xtb: 6.7.0 (08769fc)
N            1.07004401099434        0.03240404310198       -0.05704495221135
C            2.40355490088182        0.03639385406489       -0.05199464863379
N            3.11889272463480       -1.04758694059029       -0.03695235834116
C            4.42924275586154       -0.61554183635657       -0.03719475474912
C            4.55256231894507        0.77148431771191       -0.05265573115662
C            3.19585664470972        1.35964001750880       -0.06427536068383
O            5.83630539249341        1.07225207072893       -0.05138018971291
N            6.50561973252546       -0.17633597906222       -0.03457521534147
N            5.67742446209735       -1.11539630080733       -0.02682339353455
H            0.59118679505521       -0.85140572449310       -0.04824894594328
H            0.54469183212497        0.88758515268028       -0.06780552148576
H            2.98817692971917        1.94638745891126       -0.95996245629217
H            2.98186149995715        1.96667986660148        0.81628352808601
