22
 energy: -30.552600159803 gnorm: 0.000034781130 xtb: 6.7.0 (08769fc)
C            1.00812463652934       -0.09343283975983       -0.19865884032081
C            2.53456971240764       -0.02533635302929       -0.04294376302560
C            2.89936939589014        1.24742166842676        0.73005546478512
C            3.11662417188308       -1.23438727654342        0.73091280656965
C            2.44070649219258       -2.59829723667087        0.55093448794689
N            2.69602940185027       -3.14304423167949       -0.78254914334225
C            3.09873786743492        0.10074670268630       -1.47284540548086
O            3.11725029932770       -0.99676433481841       -2.20641371426660
O            3.46403851436151        1.15760928560973       -1.93154937992526
H            0.53567108441862       -0.22399471389419        0.77291311492837
H            0.70670076945770       -0.90470658277616       -0.85785481929253
H            0.64981508721383        0.83900241473160       -0.63074180499406
H            2.37782248182676        1.27566290146134        1.68395463782220
H            2.62621347205301        2.12638170177234        0.15193354447664
H            3.97151989278271        1.28807676524398        0.91025538954412
H            3.05683923681892       -0.99276243506504        1.79438852248207
H            4.17734680075243       -1.32979625118463        0.48122855558429
H            1.36255582456368       -2.50262137808277        0.68313323632633
H            2.81154275273884       -3.26588216195577        1.34110046656104
H            2.85687075174315       -1.84080085751978       -1.68812189604467
H            2.02680001581583       -3.86291715907649       -1.02752745917532
H            3.62675133793716       -3.54443762787609       -0.83450400115880
