16
 energy: -27.069804410575 gnorm: 0.000104070040 xtb: 6.7.0 (08769fc)
N            1.19033244581063        0.43958800059951       -0.47787702114603
C            2.38352442144718        0.04651211648185        0.00122626751963
N            2.90539638502275        0.76307435871473        1.01768176650187
C            3.02673902016573       -1.06437935280712       -0.55621168522334
C            2.60863021363300       -1.89846243417473       -1.60739053190443
C            3.59025497845803       -2.90669358972202       -1.83402956860118
O            3.59597152641561       -3.83943482447988       -2.67817926433777
C            4.59993448125347       -2.61446052779951       -0.85955498445757
N            4.25225435561393       -1.53759829507369       -0.12603743065330
H            0.71004020449152        1.23247985908898       -0.09179941901843
H            0.77170768474089       -0.07150551370291       -1.23282636049947
H            2.40849553968182        1.55471807379986        1.38561007058149
H            3.79191362064100        0.52983555244314        1.42199365862800
H            1.69662471067122       -1.80929227986899       -2.16694892917391
H            5.52322361664636       -3.13571980465403       -0.68492815583412
H            4.81311679530686       -1.15511133884518        0.61676158761854
