14
 energy: -24.143402983915 gnorm: 0.000020393592 xtb: 6.7.0 (08769fc)
N            2.10828743221232       -0.66734403306567       -0.11341106591801
C            2.05565821334973        0.70991705571966       -0.10829964811638
N            0.98015100911883        1.40282394126282       -0.02364284164218
C           -0.18225930664702        0.72006926065882        0.06697229414204
C           -1.49653922241106        1.10164409389559        0.17050489133358
N           -2.31492087797947        0.01572445022487        0.23398456159178
C           -1.58132518370077       -1.07699826555706        0.17560579933540
C           -0.20697742024627       -0.76212828554810        0.06791822910915
C            0.98463120787660       -1.41374191226081       -0.02582973571344
H            3.00870670510100       -1.12146107490017       -0.18423610831480
H            3.00311075231752        1.22170884366898       -0.18226251385930
H           -1.91043714776219        2.09136377654813        0.20374762692886
H           -2.03120873632071       -2.05251053191477        0.21019607541255
H            1.09365257509150       -2.48971731873229       -0.03505756428925
