15
 energy: -27.374616634336 gnorm: 0.000099374919 xtb: 6.7.0 (08769fc)
N            1.20257598091034       -0.28028996583611       -0.26676014082345
C            2.53566166282926       -0.30434585167099       -0.32698297061342
N            3.26324656750449        0.71636825926390       -0.68763903220192
C            4.64637558567694        0.70506673800253       -0.75309942205515
C            5.50645122902011        1.72926829091067       -1.12238028228243
N            6.76875041525027        1.26570353868784       -1.03808332389609
C            6.61109535173594       -0.00353266355060       -0.62623770834999
O            7.68425265702092       -0.80800103971332       -0.42359851546724
N            5.36870729300298       -0.41317248003644       -0.43341354252194
H            0.69457725953245       -1.09900367666691        0.01489576428645
H            0.68719439906692        0.55108102461374       -0.50689634919395
H            3.07297671493951       -1.20531324005128       -0.06723154317178
H            2.82231872703198        1.59458612326242       -0.94473262967726
H            5.28891902665486        2.73457819174780       -1.43165173071952
H            8.45821712982301       -0.26985324896323       -0.63326857331232
