15
 energy: -25.770575630523 gnorm: 0.000100549101 xtb: 6.7.0 (08769fc)
N            1.06793593533189       -1.02059799827785        0.08018262965960
C            2.20920840426466       -1.51530336981758       -0.44250588219243
C            2.19380219662359       -2.63344638919256       -1.27165284233373
C            3.30822141882895       -3.37130672319536       -1.67399450402825
C            4.60329052806128       -3.29954227179738       -1.22958177221250
C            5.21138722877830       -2.33846250811556       -0.35155690162097
O            6.31711258104313       -2.50060645199623        0.17069067042469
C            4.52814109722764       -1.03053391728668       -0.24445878480940
N            3.29027484205152       -0.73497585983295       -0.22694943448769
H            1.10209835994060       -0.14536899212719        0.57266544707455
H            0.18090906826047       -1.44461710892959       -0.12136307417118
H            1.22806171494582       -2.96206438480525       -1.63203987370323
H            3.09782253675828       -4.16995299980217       -2.37636470570222
H            5.30099969124396       -4.04118025492063       -1.60030985274659
H            5.20746439663992       -0.18718076990303       -0.13361111915065
