15
 energy: -27.692034593839 gnorm: 0.000082211476 xtb: 6.7.0 (08769fc)
O            2.86393931717799        2.05182178226969        0.97214258982600
C            2.34501239578161        1.02473587239154        1.31575166735170
C            3.02471079063545       -0.33901232091256        1.41354808805301
O            2.33769063508385       -1.31437742403732        1.62091070822906
C            4.49682215650385       -0.37980341189469        1.28304591572840
N            5.17209230843210       -1.38619012456635        1.71764902178903
C            6.57021015972362       -1.11225159547747        1.49160922525580
C            6.63779851818139        0.30575963937865        0.86607003032748
N            5.22668085334096        0.61220904725142        0.70972001781478
H            1.27872422621722        0.96566895560363        1.59785279781624
H            6.96497991963686       -1.88428523915320        0.82586114809261
H            7.10269199532517       -1.19129830507370        2.44238919800820
H            7.13979577037750        0.31104024399313       -0.10468367335938
H            7.13119152096811        1.02801955283097        1.52504651614790
H            4.88091943261434        1.54064332739627        0.53525674891918
