10
 energy: -25.410439810824 gnorm: 0.000086720184 xtb: 6.7.0 (08769fc)
C           -2.08959843625079        0.02542456042951       -0.24472556819508
O           -1.28506832602099       -1.17341624168962       -0.17125806100201
C           -0.04428953710886       -0.70033209228601       -0.05079155753114
C           -0.00692719306344        0.68138391531395       -0.04280490986976
O           -1.26539381370513        1.18563673035750       -0.16166824827882
N            1.26879765033043        1.03841708934772        0.08018887063805
N            1.98326320998442        0.00847398776058        0.14545018136922
O            1.16761510314685       -1.16676006675643        0.06368964651831
H           -2.80201408091133        0.01966087704205        0.59152145907332
H           -2.62943457640116        0.02554124048074       -1.20154181272208
