13
 energy: -23.867901169088 gnorm: 0.000082463531 xtb: 6.7.0 (08769fc)
C            1.00471618923522       -0.01355841875995       -0.05615131109553
N            2.44133740367960       -0.09648953844167       -0.16243022222768
C            3.08561760906065       -0.82911488341365       -1.09557137890858
N            2.62104893255074       -1.56194183835872       -2.03023982768715
C            4.57993517935283       -0.75447890169991       -0.99957325372564
O            5.17290449904698       -0.10457968148476       -0.16914440613729
C            5.25797441598028       -1.54563569496508       -2.01074741489524
N            5.84155732407435       -2.15203571030374       -2.78607391203940
H            0.74694003159626        0.63790562070967        0.77351338923134
H            0.57346982963563       -1.00286104047331        0.12295806884345
H            0.57281759692624        0.39478406060729       -0.97456645323808
H            3.01231001665561        0.41719559839126        0.49278663041123
H            1.60753097220560       -1.60262957180746       -2.08271990853145
