16
 energy: -26.729893167315 gnorm: 0.000046517892 xtb: 6.7.0 (08769fc)
C            1.01238632938292       -0.13931407858117        0.00023939866169
N            2.44899241456278       -0.06223709918928        0.00087605859612
N            3.10930816126128       -1.22366323748473        0.00048891870882
C            4.41462425573664       -1.19120788203087        0.00084877659423
N            5.11069342692008       -2.34779638416982        0.00025865511247
N            5.16218655396801       -0.03927377575421        0.00180270930644
C            4.51420982549157        1.07092302138011        0.00216677194845
C            3.06106096933835        1.16752696740290        0.00140572741357
N            2.32776177163150        2.22408672008928        0.00121091775896
H            0.73021105553230       -1.18848423782704        0.00595148006830
H            0.62181144981484        0.36554318636492       -0.88454012082587
H            0.62116292971140        0.37586638669033        0.87868172759846
H            4.62110424436989       -3.22178469862383       -0.00004177885546
H            6.11187252758655       -2.30839857362589        0.00105855458129
H            5.09438829929900        1.98739779276517        0.00305798776823
H            2.87315578539288        3.08191589259411        0.00196421556430
