13
 energy: -24.374496524439 gnorm: 0.000086906860 xtb: 6.7.0 (08769fc)
N            2.02458949692459       -0.64418152398383       -0.10714552141308
N            2.12948674923188        0.67566602558955       -0.11671702397920
C            1.02664552497198        1.38372727560731       -0.03072730228110
C           -0.21733353460337        0.75838426818816        0.06795679975279
C           -1.55782846440580        1.06117601239904        0.17360921962562
N           -2.31145641269868       -0.06207299381170        0.23413976932227
C           -1.52281691902280       -1.12205565166963        0.17263505228174
C           -0.17533169578383       -0.72863973829334        0.06596750387730
N            0.95902253793698       -1.37899128463427       -0.02251885995613
H            2.90844508487622       -1.14221091254435       -0.17569784591331
H            1.15633122112246        2.45671213184094       -0.04181469095623
H           -2.02698796829617        2.02659407176084        0.20992194118368
H           -1.91795562025346       -2.11886768044871        0.20465095845565
