15
 energy: -27.256715264945 gnorm: 0.000068366014 xtb: 6.7.0 (08769fc)
C            1.01367851775727        0.04757553836564        0.01928361076421
N            2.45039226204278       -0.01828971596160       -0.06115646678102
C            3.03165024179056       -1.14717919661672       -0.04405821367702
N            4.43654502003359       -1.12448133084365       -0.12670702310719
C            5.17608494769805       -2.24252622165758       -0.11859852759703
C            4.53632765601804       -3.44281761953428       -0.02713162103529
F            5.23668039015826       -4.60209316904644       -0.01486955225055
C            3.11908209408762       -3.45492850381634        0.05487447287637
N            2.41588551061711       -2.37804800406419        0.04691817539775
H            0.73316359742604        1.09958978381330       -0.01552328272636
H            0.64447876469087       -0.39611482545553        0.94766077636808
H            0.54164559432654       -0.48219549423390       -0.81232156671114
H            4.85552736708427       -0.20677682874193       -0.19260920917644
H            6.25109393368102       -2.15776575630074       -0.18449813213103
H            2.59073410258796       -4.39792865590604        0.12788655978668
