13
 energy: -28.945694416983 gnorm: 0.000066859656 xtb: 6.7.0 (08769fc)
O            1.86445091571014       -0.16901779855191        1.55666789518802
C            2.41134881644666       -0.08102862532411        0.49309305920315
C            3.07075817381614        1.18370717639864       -0.04551226331887
O            3.78175707808783        0.97714635571282       -1.23733968236404
C            4.73768326034838       -0.04658061809950       -1.15474364214207
C            4.16289066431064       -1.37425221034752       -0.67395750718031
O            4.81298948967710       -2.34634215297130       -0.40853708811800
C            2.65181099869919       -1.24377064465191       -0.47194932960388
O            1.80720255537546       -1.85164025732629       -1.06563743700095
H            3.71633837368560        1.58699065244132        0.75191484131511
H            2.30044494319978        1.92886804757190       -0.26786557691724
H            5.56643202013340        0.22054388940875       -0.47860478038217
H            5.14803271050968       -0.17138381426089       -2.16175848867873
