11
 energy: -17.722216814385 gnorm: 0.067510913319 xtb: 6.7.0 (08769fc)
C            2.04124692070000        0.00022107780000        0.00248251700000
N            0.58010113570000        0.00066431270000       -0.00393227130000
N           -0.11099610630000       -1.13470815750000       -0.00093381640000
C           -1.34557200700000       -0.70752763110000        0.00121127520000
C           -1.34649918710000        0.70620049760000        0.00120828790000
N           -0.11261081170000        1.13522837270000       -0.00084944300000
H            2.41245279760000       -0.67101493480000       -0.76778222360000
H            2.40433360540000       -0.33423249870000        0.97117667630000
H            2.41077956020000        1.00442977560000       -0.19011585900000
H           -2.21221695970000       -1.35484679070000        0.00419038090000
H           -2.21402386380000        1.35238371270000        0.00354233240000
11
 energy: -17.725646324867 gnorm: 0.022603369601 xtb: 6.7.0 (08769fc)
C            2.04428722022641       -0.00224306450547        0.00400563958408
N            0.60095737379990        0.00066891332000       -0.00590027958345
N           -0.10513875728774       -1.11279375619557       -0.00320090172947
C           -1.35745657225382       -0.70196932518612        0.00188905774933
C           -1.35799850858286        0.70254753231678        0.00186294579899
N           -0.10567950690516        1.11389887178742       -0.00330526938010
H            2.40733025293830       -0.67730919239318       -0.76922071794647
H            2.40639003233647       -0.33743178638911        0.97586143800998
H            2.38694257711445        1.01151730413717       -0.18942192056836
H           -2.20578804566833       -1.36054392219308        0.00394820355425
H           -2.20685098171763        1.36045616160115        0.00367966091122
11
 energy: -17.726166876431 gnorm: 0.008136814468 xtb: 6.7.0 (08769fc)
C            2.03861498150837       -0.00251739168519        0.00363302332295
N            0.60622417711894       -0.00083427828446       -0.00553149654161
N           -0.10301008802183       -1.10448802658219       -0.00198521228357
C           -1.36356636642545       -0.69940128867292        0.00209902419803
C           -1.36264551925355        0.70047078316937        0.00198684900304
N           -0.10116378204156        1.10363171617614       -0.00205064008252
H            2.40324834842160       -0.67871895791860       -0.76847161738624
H            2.40565310300268       -0.33768344927029        0.97473288253618
H            2.37242270611814        1.01425738960964       -0.18898132769038
H           -2.19526079387027       -1.37252498116065        0.00251036092507
H           -2.19352168255707        1.37460622091916        0.00225601039905
11
 energy: -17.726249367870 gnorm: 0.005152525222 xtb: 6.7.0 (08769fc)
C            2.03526362720262       -0.00215992640337        0.00357351494111
N            0.60443901289478       -0.00209685875967       -0.00538657779441
N           -0.10386859346868       -1.10467546467135       -0.00241130039779
C           -1.36602284945291       -0.69863270947389        0.00188768203521
C           -1.36427301693707        0.69966661022434        0.00174255677908
N           -0.10068467776542        1.10205139859420       -0.00275302232606
H            2.40322803182490       -0.67797482151447       -0.76765201665587
H            2.40563576902559       -0.33712543870486        0.97399867986702
H            2.36962773391930        1.01456546644028       -0.18837896411267
H           -2.18992227585807       -1.38073914594888        0.00293236116266
H           -2.18642767738502        1.38391862651769        0.00264494290173
11
 energy: -17.726282040685 gnorm: 0.001369339576 xtb: 6.7.0 (08769fc)
C            2.03316433450830       -0.00182294913124        0.00326125868025
N            0.60185046883186       -0.00326578129909       -0.00451996988734
N           -0.10536967734805       -1.10607440359498       -0.00148978480831
C           -1.36796088857509       -0.69778503046384        0.00201167815016
C           -1.36559630153837        0.69877990615522        0.00159394679516
N           -0.10117049476586        1.10189062034640       -0.00203336534257
H            2.40332121998709       -0.67686919958956       -0.76794725885060
H            2.40561200293021       -0.33677278457401        0.97322530389646
H            2.36865890485075        1.01475531645341       -0.18825994910884
H           -2.18521293575810       -1.38830493712735        0.00257827136730
H           -2.18030154912275        1.39226697912503        0.00177772550835
11
 energy: -17.726283463480 gnorm: 0.000360221867 xtb: 6.7.0 (08769fc)
C            2.03374609340786       -0.00186826942923        0.00348768796420
N            0.60150385937371       -0.00328846985117       -0.00481482611784
N           -0.10580210030371       -1.10641860517937       -0.00191827632039
C           -1.36812306583996       -0.69749318848872        0.00192211949624
C           -1.36581603184139        0.69853844756641        0.00142575399673
N           -0.10168114001064        1.10231298151617       -0.00299522576763
H            2.40331879144091       -0.67655155508366       -0.76818133053985
H            2.40508937927007       -0.33705938259003        0.97360564891549
H            2.36905951407592        1.01480197175033       -0.18787991579350
H           -2.18455553480775       -1.38919095348158        0.00327720437444
H           -2.17974468076503        1.39301475957088        0.00226901619211
11
 energy: -17.726283608969 gnorm: 0.000126140104 xtb: 6.7.0 (08769fc)
C            2.03402664591328       -0.00191946236436        0.00335177106982
N            0.60171918043971       -0.00317232994114       -0.00455512630124
N           -0.10573307025276       -1.10624575948467       -0.00124599648405
C           -1.36807166689836       -0.69750434395038        0.00221488633230
C           -1.36582111197528        0.69857243087507        0.00138325766717
N           -0.10171326252354        1.10233082826478       -0.00234118936574
H            2.40311842598481       -0.67637553260467       -0.76866406233839
H            2.40511955781832       -0.33747809690740        0.97331938461214
H            2.36902185594893        1.01486265475483       -0.18775196969636
H           -2.18465124956899       -1.38900761027920        0.00306016354909
H           -2.18002022088612        1.39273495793714        0.00142673735526
11
 energy: -17.726283648411 gnorm: 0.000059269919 xtb: 6.7.0 (08769fc)
C            2.03400654439134       -0.00192037083322        0.00342586804517
N            0.60175007569209       -0.00314556000262       -0.00470742489116
N           -0.10570541222000       -1.10618855572143       -0.00135435172779
C           -1.36807659201626       -0.69753021234577        0.00217511968874
C           -1.36582681024980        0.69859919398349        0.00132018972418
N           -0.10169795791042        1.10231062404872       -0.00287755463759
H            2.40315188690345       -0.67624332699676       -0.76866579961479
H            2.40506651078580       -0.33768643820400        0.97333127444620
H            2.36900194134226        1.01488793782906       -0.18744202573572
H           -2.18463649120291       -1.38902671449043        0.00335521464426
H           -2.18003861151555        1.39274115903296        0.00163734645849
