      -----------------------------------------------------------      
     |                   =====================                   |     
     |                           x T B                           |     
     |                   =====================                   |     
     |                         S. Grimme                         |     
     |          Mulliken Center for Theoretical Chemistry        |     
     |                    University of Bonn                     |     
      -----------------------------------------------------------      

   * xtb version 6.7.0 (08769fc) compiled by 'albert@albert-system' on 2024-03-04

   xtb is free software: you can redistribute it and/or modify it under
   the terms of the GNU Lesser General Public License as published by
   the Free Software Foundation, either version 3 of the License, or
   (at your option) any later version.
   
   xtb is distributed in the hope that it will be useful,
   but WITHOUT ANY WARRANTY; without even the implied warranty of
   MERCHANTABILITY or FITNESS FOR A PARTICULAR PURPOSE.  See the
   GNU Lesser General Public License for more details.
   
   Cite this work as:
   * C. Bannwarth, E. Caldeweyher, S. Ehlert, A. Hansen, P. Pracht,
     J. Seibert, S. Spicher, S. Grimme, WIREs Comput. Mol. Sci., 2020, 11,
     e01493. DOI: 10.1002/wcms.1493
   
   for GFN2-xTB:
   * C. Bannwarth, S. Ehlert and S. Grimme., J. Chem. Theory Comput., 2019,
     15, 1652-1671. DOI: 10.1021/acs.jctc.8b01176
   for GFN1-xTB:
   * S. Grimme, C. Bannwarth, P. Shushkov, J. Chem. Theory Comput., 2017,
     13, 1989-2009. DOI: 10.1021/acs.jctc.7b00118
   for GFN0-xTB:
   * P. Pracht, E. Caldeweyher, S. Ehlert, S. Grimme, ChemRxiv, 2019, preprint.
     DOI: 10.26434/chemrxiv.8326202.v1
   for GFN-FF:
   * S. Spicher and S. Grimme, Angew. Chem. Int. Ed., 2020, 59, 15665-15673.
     DOI: 10.1002/anie.202004239
   
   for ALPB and GBSA implicit solvation:
   * S. Ehlert, M. Stahn, S. Spicher, S. Grimme, J. Chem. Theory Comput.,
     2021, 17, 4250-4261. DOI: 10.1021/acs.jctc.1c00471
   
   for ddCOSMO and CPCM-X implicit solvation:
   * M. Stahn, S. Ehlert, S. Grimme, J. Phys. Chem. A,
     2023, XX, XXXX-XXXX. DOI: 10.1021/acs.jpca.3c04382
   
   for DFT-D4:
   * E. Caldeweyher, C. Bannwarth and S. Grimme, J. Chem. Phys., 2017,
     147, 034112. DOI: 10.1063/1.4993215
   * E. Caldeweyher, S. Ehlert, A. Hansen, H. Neugebauer, S. Spicher,
     C. Bannwarth and S. Grimme, J. Chem. Phys., 2019, 150, 154122.
     DOI: 10.1063/1.5090222
   * E. Caldeweyher, J.-M. Mewes, S. Ehlert and S. Grimme, Phys. Chem. Chem. Phys.
     2020, 22, 8499-8512. DOI: 10.1039/D0CP00502A
   
   for sTDA-xTB:
   * S. Grimme and C. Bannwarth, J. Chem. Phys., 2016, 145, 054103.
     DOI: 10.1063/1.4959605
   
   in the mass-spec context:
   * V. Asgeirsson, C. Bauer and S. Grimme, Chem. Sci., 2017, 8, 4879.
     DOI: 10.1039/c7sc00601b
   * J. Koopman and S. Grimme, ACS Omega 2019, 4, 12, 15120-15133.
     DOI: 10.1021/acsomega.9b02011
   
   for metadynamics refer to:
   * S. Grimme, J. Chem. Theory Comput., 2019, 155, 2847-2862
     DOI: 10.1021/acs.jctc.9b00143
   
   for SPH calculations refer to:
   * S. Spicher and S. Grimme, J. Chem. Theory Comput., 2021, 17, 1701-1714
     DOI: 10.1021/acs.jctc.0c01306
   
   for ONIOM refer to:
   * C. Plett, A. Katbashev, S. Ehlert, S. Grimme, M. Bursch,
     Phys. Chem. Chem. Phys., 2023, 25, 17860-17868. DOI: 10.1039/D3CP02178E
   
   for DIPRO refer to:
   * J. Kohn, N. Gildemeister, S. Grimme, D. Fazzi, A. Hansen,
     J. Chem. Phys., 2023, just accepted.
   
   for PTB refer to:
   * S. Grimme, M. Mueller, A. Hansen, J. Chem. Phys., 2023, 158, 124111.
     DOI: 10.1063/5.0137838
   
   with help from (in alphabetical order)
   P. Atkinson, C. Bannwarth, F. Bohle, G. Brandenburg, E. Caldeweyher
   M. Checinski, S. Dohm, S. Ehlert, S. Ehrlich, I. Gerasimov, C. Hölzer
   A. Katbashev, J. Kohn, J. Koopman, C. Lavigne, S. Lehtola, F. März, M. Müller,
   F. Musil, H. Neugebauer, J. Pisarek, C. Plett, P. Pracht, F. Pultar,
   J. Seibert, P. Shushkov, S. Spicher, M. Stahn, M. Steiner, T. Strunk,
   J. Stückrath, T. Rose, and J. Unsleber
   
 * started run on 2024/08/07 at 19:48:42.926     
   ID    Z sym.   atoms
    1    6 C      1-6
    2    8 O      7
    3    1 H      8-15

           -------------------------------------------------
          |                Calculation Setup                |
           -------------------------------------------------

          program call               : /home/mvotokps/xtb-dist/bin/xtb crest_best.xyz --gfn 2 --alpb toluene --opt vtight -c 0 --iterations 4000
          coordinate file            : crest_best.xyz
          omp threads                :                     8


           -------------------------------------------------
          |                 G F N 2 - x T B                 |
           -------------------------------------------------

        Reference                      10.1021/acs.jctc.8b01176
      * Hamiltonian:
        H0-scaling (s, p, d)           1.850000    2.230000    2.230000
        zeta-weighting                 0.500000
      * Dispersion:
        s8                             2.700000
        a1                             0.520000
        a2                             5.000000
        s9                             5.000000
      * Repulsion:
        kExp                           1.500000    1.000000
        rExp                           1.000000
      * Coulomb:
        alpha                          2.000000
        third order                    shell-resolved
        anisotropic                    true
        a3                             3.000000
        a5                             4.000000
        cn-shift                       1.200000
        cn-exp                         4.000000
        max-rad                        5.000000

      * Solvation model:               ALPB
        Solvent                        toluene
        Parameter file                 internal GFN2-xTB/ALPB
        Dielectric constant                7.0000E+00
        Reference state                gsolv [1 M gas/solution]
        Free energy shift                  2.2081E-03 Eh       1.3856E+00 kcal/mol
        Temperature                        2.9815E+02 K
        Density                            8.6700E-01 kg/L
        Solvent mass                       7.8110E+01 g/mol
        Interaction kernel             P16
        Born radius scaling (c1)           1.7172E+00
        Born radii integrator          GBOBC
        Born offset                        0.0000E+00 a0       0.0000E+00 AA
        H-bond correction              false
        Ion screening                  false
        Surface tension                    1.0000E-05 Eh       1.5569E+01 dyn/cm
        Grid points                               230 per atom

          ...................................................
          :                      SETUP                      :
          :.................................................:
          :  # basis functions                  36          :
          :  # atomic orbitals                  36          :
          :  # shells                           22          :
          :  # electrons                        38          :
          :  max. iterations                  4000          :
          :  Hamiltonian                  GFN2-xTB          :
          :  restarted?                      false          :
          :  GBSA solvation                   true          :
          :  PC potential                    false          :
          :  electronic temp.          300.0000000     K    :
          :  accuracy                    1.0000000          :
          :  -> integral cutoff          0.2500000E+02      :
          :  -> integral neglect         0.1000000E-07      :
          :  -> SCF convergence          0.1000000E-05 Eh   :
          :  -> wf. convergence          0.1000000E-03 e    :
          :  Broyden damping             0.4000000          :
          :  net charge                          0          :
          :  unpaired electrons                  0          :
          ...................................................

 iter      E             dE          RMSdq      gap      omega  full diag
   1    -21.2307503 -0.212308E+02  0.571E+00    4.08       0.0  T
   2    -21.2674954 -0.367451E-01  0.313E+00    3.21       1.0  T
   3    -21.2627878  0.470762E-02  0.163E+00    3.62       1.0  T
   4    -21.2705664 -0.777855E-02  0.502E-01    3.36       1.0  T
   5    -21.2739144 -0.334800E-02  0.138E-01    3.32       1.0  T
   6    -21.2740772 -0.162819E-03  0.506E-02    3.33       1.0  T
   7    -21.2740832 -0.601014E-05  0.167E-02    3.33       1.6  T
   8    -21.2740833 -0.128283E-06  0.338E-03    3.33       7.6  T
   9    -21.2740834 -0.452900E-07  0.149E-03    3.33      17.4  T
  10    -21.2740834 -0.429358E-08  0.641E-04    3.33      40.3  T
  11    -21.2740834 -0.126489E-08  0.158E-04    3.33     163.5  T

   *** convergence criteria satisfied after 11 iterations ***

         #    Occupation            Energy/Eh            Energy/eV
      -------------------------------------------------------------
         1        2.0000           -0.7270411             -19.7838
       ...           ...                  ...                  ...
        13        2.0000           -0.4908905             -13.3578
        14        2.0000           -0.4823878             -13.1264
        15        2.0000           -0.4696801             -12.7806
        16        2.0000           -0.4543405             -12.3632
        17        2.0000           -0.4177833             -11.3685
        18        2.0000           -0.3964111             -10.7869
        19        2.0000           -0.3911468             -10.6436 (HOMO)
        20                         -0.2687805              -7.3139 (LUMO)
        21                         -0.1573564              -4.2819
        22                         -0.1529865              -4.1630
        23                          0.0676970               1.8421
        24                          0.0875698               2.3829
       ...                                ...                  ...
        36                          1.3761479              37.4469
      -------------------------------------------------------------
                  HL-Gap            0.1223662 Eh            3.3298 eV
             Fermi-level           -0.3299636 Eh           -8.9788 eV

 SCC (total)                   0 d,  0 h,  0 min,  0.120 sec
 SCC setup                      ...        0 min,  0.000 sec (  0.350%)
 Dispersion                     ...        0 min,  0.000 sec (  0.206%)
 classical contributions        ...        0 min,  0.000 sec (  0.067%)
 integral evaluation            ...        0 min,  0.001 sec (  0.562%)
 iterations                     ...        0 min,  0.117 sec ( 97.544%)
 molecular gradient             ...        0 min,  0.001 sec (  1.132%)
 printout                       ...        0 min,  0.000 sec (  0.106%)

         :::::::::::::::::::::::::::::::::::::::::::::::::::::
         ::                     SUMMARY                     ::
         :::::::::::::::::::::::::::::::::::::::::::::::::::::
         :: total energy             -20.912232401757 Eh    ::
         :: total w/o Gsasa/hb       -20.903543986394 Eh    ::
         :: gradient norm              0.083477090414 Eh/a0 ::
         :: HOMO-LUMO gap              3.329754886737 eV    ::
         ::.................................................::
         :: SCC energy               -21.274072188202 Eh    ::
         :: -> isotropic ES            0.027118071504 Eh    ::
         :: -> anisotropic ES          0.001307237722 Eh    ::
         :: -> anisotropic XC          0.011222376033 Eh    ::
         :: -> dispersion             -0.008393800311 Eh    ::
         :: -> Gsolv                  -0.010652803734 Eh    ::
         ::    -> Gelec               -0.001964388372 Eh    ::
         ::    -> Gsasa               -0.010896558501 Eh    ::
         ::    -> Ghb                  0.000000000000 Eh    ::
         ::    -> Gshift               0.002208143139 Eh    ::
         :: repulsion energy           0.361839786445 Eh    ::
         :: add. restraining           0.000000000000 Eh    ::
         :: total charge               0.000000000000 e     ::
         :::::::::::::::::::::::::::::::::::::::::::::::::::::

      ----------------------------------------------------------- 
     |                   =====================                   |
     |                        A N C O P T                        |
     |                   =====================                   |
     |               Approximate Normal Coordinate               |
     |                Rational Function Optimizer                |
      ----------------------------------------------------------- 
      ----------------------------------------------------------- 
     |                   =====================                   |
     |                        A N C O P T                        |
     |                   =====================                   |
     |               Approximate Normal Coordinate               |
     |                Rational Function Optimizer                |
      ----------------------------------------------------------- 

          ...................................................
          :                      SETUP                      :
          :.................................................:
          :   optimization level         verytight          :
          :   max. optcycles                   300          :
          :   ANC micro-cycles                  20          :
          :   degrees of freedom                39          :
          :.................................................:
          :   RF solver                   davidson          :
          :   write xtbopt.log                true          :
          :   linear?                        false          :
          :   energy convergence         0.1000000E-06 Eh   :
          :   grad. convergence          0.2000000E-03 Eh/α :
          :   maxmium RF displ.          1.0000000          :
          :   Hlow (freq-cutoff)         0.1000000E-01      :
          :   Hmax (freq-cutoff)         5.0000000          :
          :   S6 in model hess.         20.0000000          :
          ...................................................

generating ANC from model Hessian ...
Using Lindh-Hessian (1995)
 Shifting diagonal of input Hessian by   9.117193591360085E-003
 Lowest  eigenvalues of input Hessian
    0.000000    0.000000    0.000000    0.000000    0.000000    0.000000
    0.010000    0.010521    0.015141    0.016483    0.020129    0.020438
    0.023813    0.045938    0.053894    0.061518    0.064073    0.073909
 Highest eigenvalues
    1.167047    1.220841    1.375608    1.402993    2.228624    2.586726
 

........................................................................
.............................. CYCLE    1 ..............................
........................................................................

 iter      E             dE          RMSdq      gap      omega  full diag
   1    -21.2740834 -0.212741E+02  0.449E-05    3.33       0.0  T
   2    -21.2740834 -0.186162E-11  0.256E-05    3.33    1010.1  T
   3    -21.2740834  0.124700E-11  0.220E-05    3.33    1172.7  T
     SCC iter.                  ...        0 min,  0.101 sec
     gradient                   ...        0 min,  0.001 sec
 * total energy  :   -20.9122324 Eh     change       -0.2636646E-09 Eh
   gradient norm :     0.0834770 Eh/α   predicted     0.0000000E+00 (-100.00%)
   displ. norm   :     0.1121755 α      lambda       -0.4813512E-02
   maximum displ.:     0.0500088 α      in ANC's #25, #12, #13, ...

........................................................................
.............................. CYCLE    2 ..............................
........................................................................

 iter      E             dE          RMSdq      gap      omega  full diag
   1    -21.2756080 -0.212756E+02  0.171E-01    3.31       0.0  T
   2    -21.2756208 -0.127926E-04  0.103E-01    3.34       1.0  T
   3    -21.2755791  0.417009E-04  0.632E-02    3.35       1.0  T
   4    -21.2756252 -0.460932E-04  0.128E-02    3.35       2.0  T
   5    -21.2756272 -0.201953E-05  0.306E-03    3.35       8.4  T
   6    -21.2756273 -0.600216E-07  0.167E-03    3.35      15.5  T
   7    -21.2756273 -0.443414E-08  0.786E-04    3.35      32.8  T
   8    -21.2756273 -0.742251E-09  0.176E-04    3.35     146.3  T
     SCC iter.                  ...        0 min,  0.103 sec
     gradient                   ...        0 min,  0.001 sec
 * total energy  :   -20.9151333 Eh     change       -0.2900928E-02 Eh
   gradient norm :     0.0186275 Eh/α   predicted    -0.2437040E-02 ( -15.99%)
   displ. norm   :     0.0945118 α      lambda       -0.8240578E-03
   maximum displ.:     0.0462544 α      in ANC's #4, #6, #25, ...

........................................................................
.............................. CYCLE    3 ..............................
........................................................................

 iter      E             dE          RMSdq      gap      omega  full diag
   1    -21.2715696 -0.212716E+02  0.125E-01    3.37       0.0  T
   2    -21.2715724 -0.281545E-05  0.741E-02    3.36       1.0  T
   3    -21.2715630  0.946476E-05  0.287E-02    3.36       1.0  T
   4    -21.2715727 -0.976482E-05  0.800E-03    3.36       3.2  T
   5    -21.2715736 -0.834295E-06  0.192E-03    3.36      13.4  T
   6    -21.2715736 -0.770057E-08  0.791E-04    3.36      32.6  T
   7    -21.2715736 -0.949733E-09  0.347E-04    3.36      74.5  T
     SCC iter.                  ...        0 min,  0.100 sec
     gradient                   ...        0 min,  0.006 sec
 * total energy  :   -20.9155644 Eh     change       -0.4310525E-03 Eh
   gradient norm :     0.0078515 Eh/α   predicted    -0.4157095E-03 (  -3.56%)
   displ. norm   :     0.0500867 α      lambda       -0.1596576E-03
   maximum displ.:     0.0308795 α      in ANC's #4, #18, #9, ...

........................................................................
.............................. CYCLE    4 ..............................
........................................................................

 iter      E             dE          RMSdq      gap      omega  full diag
   1    -21.2713949 -0.212714E+02  0.611E-02    3.38       0.0  T
   2    -21.2713960 -0.104533E-05  0.366E-02    3.37       1.0  T
   3    -21.2713945  0.144152E-05  0.123E-02    3.37       2.1  T
   4    -21.2713959 -0.134149E-05  0.500E-03    3.37       5.2  T
   5    -21.2713962 -0.341645E-06  0.110E-03    3.37      23.5  T
   6    -21.2713962 -0.399550E-08  0.412E-04    3.37      62.7  T
   7    -21.2713962 -0.481343E-09  0.193E-04    3.37     133.8  T
     SCC iter.                  ...        0 min,  0.181 sec
     gradient                   ...        0 min,  0.003 sec
 * total energy  :   -20.9156143 Eh     change       -0.4996100E-04 Eh
   gradient norm :     0.0042433 Eh/α   predicted    -0.8002942E-04 (  60.18%)
   displ. norm   :     0.0332790 α      lambda       -0.5730297E-04
   maximum displ.:     0.0235671 α      in ANC's #4, #6, #5, ...

........................................................................
.............................. CYCLE    5 ..............................
........................................................................

 iter      E             dE          RMSdq      gap      omega  full diag
   1    -21.2726782 -0.212727E+02  0.410E-02    3.38       0.0  T
   2    -21.2726784 -0.220331E-06  0.244E-02    3.38       1.1  T
   3    -21.2726782  0.181043E-06  0.435E-03    3.38       5.9  T
   4    -21.2726784 -0.181254E-06  0.207E-03    3.38      12.5  T
   5    -21.2726784 -0.505228E-07  0.652E-04    3.38      39.6  T
   6    -21.2726784 -0.119082E-08  0.313E-04    3.38      82.6  T
     SCC iter.                  ...        0 min,  0.106 sec
     gradient                   ...        0 min,  0.002 sec
 * total energy  :   -20.9156532 Eh     change       -0.3890381E-04 Eh
   gradient norm :     0.0020235 Eh/α   predicted    -0.2868228E-04 ( -26.27%)
   displ. norm   :     0.0570963 α      lambda       -0.3480072E-04
   maximum displ.:     0.0457331 α      in ANC's #4, #6, #7, ...

........................................................................
.............................. CYCLE    6 ..............................
........................................................................

 iter      E             dE          RMSdq      gap      omega  full diag
   1    -21.2732702 -0.212733E+02  0.623E-02    3.38       0.0  T
   2    -21.2732703 -0.139946E-06  0.369E-02    3.38       1.0  T
   3    -21.2732701  0.231423E-06  0.476E-03    3.38       5.4  T
   4    -21.2732704 -0.287689E-06  0.153E-03    3.38      16.9  T
   5    -21.2732704 -0.179714E-07  0.704E-04    3.38      36.7  T
   6    -21.2732704 -0.562682E-09  0.238E-04    3.38     108.4  T
     SCC iter.                  ...        0 min,  0.139 sec
     gradient                   ...        0 min,  0.018 sec
 * total energy  :   -20.9156811 Eh     change       -0.2783170E-04 Eh
   gradient norm :     0.0017469 Eh/α   predicted    -0.1745750E-04 ( -37.27%)
   displ. norm   :     0.2407682 α      lambda       -0.7366571E-04
   maximum displ.:     0.1869797 α      in ANC's #4, #7, #6, ...

........................................................................
.............................. CYCLE    7 ..............................
........................................................................

 iter      E             dE          RMSdq      gap      omega  full diag
   1    -21.2732598 -0.212733E+02  0.268E-01    3.36       0.0  T
   2    -21.2732615 -0.168131E-05  0.159E-01    3.36       1.0  T
   3    -21.2732571  0.444844E-05  0.203E-02    3.36       1.3  T
   4    -21.2732627 -0.564757E-05  0.493E-03    3.36       5.2  T
   5    -21.2732628 -0.758701E-07  0.282E-03    3.36       9.2  T
   6    -21.2732628 -0.140602E-07  0.706E-04    3.36      36.5  T
   7    -21.2732628 -0.227598E-08  0.309E-04    3.36      83.6  T
     SCC iter.                  ...        0 min,  0.223 sec
     gradient                   ...        0 min,  0.005 sec
 * total energy  :   -20.9157503 Eh     change       -0.6926322E-04 Eh
   gradient norm :     0.0057380 Eh/α   predicted    -0.3778131E-04 ( -45.45%)
   displ. norm   :     0.1335606 α      lambda       -0.6932988E-04
   maximum displ.:     0.0935292 α      in ANC's #4, #7, #5, ...

........................................................................
.............................. CYCLE    8 ..............................
........................................................................

 iter      E             dE          RMSdq      gap      omega  full diag
   1    -21.2728193 -0.212728E+02  0.155E-01    3.36       0.0  T
   2    -21.2728200 -0.720409E-06  0.917E-02    3.36       1.0  T
   3    -21.2728196  0.432801E-06  0.777E-03    3.36       3.3  T
   4    -21.2728203 -0.682054E-06  0.335E-03    3.36       7.7  T
   5    -21.2728204 -0.924713E-07  0.163E-03    3.36      15.8  T
   6    -21.2728204 -0.675453E-08  0.579E-04    3.36      44.6  T
   7    -21.2728204 -0.716636E-09  0.214E-04    3.36     120.8  T
     SCC iter.                  ...        0 min,  0.112 sec
     gradient                   ...        0 min,  0.001 sec
 * total energy  :   -20.9158088 Eh     change       -0.5849681E-04 Eh
   gradient norm :     0.0074343 Eh/α   predicted    -0.3528428E-04 ( -39.68%)
   displ. norm   :     0.2922838 α      lambda       -0.2181281E-03
   maximum displ.:     0.1816193 α      in ANC's #4, #7, #5, ...

........................................................................
.............................. CYCLE    9 ..............................
........................................................................

 iter      E             dE          RMSdq      gap      omega  full diag
   1    -21.2705542 -0.212706E+02  0.348E-01    3.33       0.0  T
   2    -21.2705601 -0.596135E-05  0.205E-01    3.34       1.0  T
   3    -21.2705582  0.190925E-05  0.170E-02    3.35       1.5  T
   4    -21.2705607 -0.252301E-05  0.976E-03    3.35       2.6  T
   5    -21.2705618 -0.109893E-05  0.374E-03    3.35       6.9  T
   6    -21.2705619 -0.534148E-07  0.155E-03    3.34      16.6  T
   7    -21.2705619 -0.305776E-08  0.356E-04    3.34      72.5  T
   8    -21.2705619 -0.625452E-09  0.155E-04    3.34     167.1  T
     SCC iter.                  ...        0 min,  0.105 sec
     gradient                   ...        0 min,  0.003 sec
 * total energy  :   -20.9159062 Eh     change       -0.9740057E-04 Eh
   gradient norm :     0.0151997 Eh/α   predicted    -0.1183822E-03 (  21.54%)
   displ. norm   :     0.0722434 α      lambda       -0.2405953E-03
   maximum displ.:     0.0557411 α      in ANC's #4, #6, #8, ...

........................................................................
.............................. CYCLE   10 ..............................
........................................................................

 iter      E             dE          RMSdq      gap      omega  full diag
   1    -21.2733859 -0.212734E+02  0.726E-02    3.40       0.0  T
   2    -21.2733875 -0.160760E-05  0.440E-02    3.39       1.0  T
   3    -21.2733834  0.413887E-05  0.184E-02    3.39       1.4  T
   4    -21.2733878 -0.441863E-05  0.479E-03    3.39       5.4  T
   5    -21.2733881 -0.264551E-06  0.153E-03    3.39      16.9  T
   6    -21.2733881 -0.106095E-07  0.808E-04    3.39      32.0  T
   7    -21.2733881 -0.920164E-09  0.312E-04    3.39      82.8  T
     SCC iter.                  ...        0 min,  0.100 sec
     gradient                   ...        0 min,  0.002 sec
 * total energy  :   -20.9159843 Eh     change       -0.7804522E-04 Eh
   gradient norm :     0.0058487 Eh/α   predicted    -0.1209253E-03 (  54.94%)
   displ. norm   :     0.1021839 α      lambda       -0.1003071E-03
   maximum displ.:     0.0586081 α      in ANC's #7, #4, #5, ...

........................................................................
.............................. CYCLE   11 ..............................
........................................................................

 iter      E             dE          RMSdq      gap      omega  full diag
   1    -21.2724658 -0.212725E+02  0.124E-01    3.39       0.0  T
   2    -21.2724663 -0.424037E-06  0.733E-02    3.39       1.0  T
   3    -21.2724637  0.255977E-05  0.143E-02    3.39       1.8  T
   4    -21.2724666 -0.292342E-05  0.239E-03    3.39      10.8  T
   5    -21.2724666 -0.175075E-07  0.133E-03    3.39      19.4  T
   6    -21.2724666 -0.265197E-08  0.465E-04    3.39      55.5  T
   7    -21.2724666 -0.955417E-09  0.183E-04    3.39     141.4  T
     SCC iter.                  ...        0 min,  0.158 sec
     gradient                   ...        0 min,  0.010 sec
 * total energy  :   -20.9160591 Eh     change       -0.7485439E-04 Eh
   gradient norm :     0.0041833 Eh/α   predicted    -0.5067722E-04 ( -32.30%)
   displ. norm   :     0.1954287 α      lambda       -0.1087665E-03
   maximum displ.:     0.1228743 α      in ANC's #7, #4, #5, ...

........................................................................
.............................. CYCLE   12 ..............................
........................................................................

 iter      E             dE          RMSdq      gap      omega  full diag
   1    -21.2706925 -0.212707E+02  0.240E-01    3.37       0.0  T
   2    -21.2706946 -0.209185E-05  0.142E-01    3.38       1.0  T
   3    -21.2706859  0.869710E-05  0.263E-02    3.38       1.0  T
   4    -21.2706958 -0.988846E-05  0.481E-03    3.38       5.4  T
   5    -21.2706959 -0.132176E-06  0.256E-03    3.38      10.1  T
   6    -21.2706959 -0.113544E-07  0.111E-03    3.38      23.2  T
   7    -21.2706959 -0.223687E-08  0.356E-04    3.38      72.4  T
   8    -21.2706959 -0.735064E-09  0.113E-04    3.38     227.9  T
     SCC iter.                  ...        0 min,  0.115 sec
     gradient                   ...        0 min,  0.001 sec
 * total energy  :   -20.9160958 Eh     change       -0.3667969E-04 Eh
   gradient norm :     0.0113252 Eh/α   predicted    -0.5646002E-04 (  53.93%)
   displ. norm   :     0.0476091 α      lambda       -0.9750524E-04
   maximum displ.:     0.0343213 α      in ANC's #4, #7, #5, ...

........................................................................
.............................. CYCLE   13 ..............................
........................................................................

 iter      E             dE          RMSdq      gap      omega  full diag
   1    -21.2727433 -0.212727E+02  0.519E-02    3.41       0.0  T
   2    -21.2727449 -0.153296E-05  0.303E-02    3.40       1.0  T
   3    -21.2727448  0.717878E-07  0.637E-03    3.40       4.1  T
   4    -21.2727450 -0.192940E-06  0.145E-03    3.40      17.8  T
   5    -21.2727450 -0.653925E-08  0.104E-03    3.40      24.9  T
   6    -21.2727450 -0.113002E-07  0.350E-04    3.40      73.8  T
   7    -21.2727450 -0.553353E-09  0.188E-04    3.40     137.2  T
     SCC iter.                  ...        0 min,  0.102 sec
     gradient                   ...        0 min,  0.001 sec
 * total energy  :   -20.9161529 Eh     change       -0.5705575E-04 Eh
   gradient norm :     0.0047405 Eh/α   predicted    -0.4886465E-04 ( -14.36%)
   displ. norm   :     0.0697321 α      lambda       -0.6393348E-04
   maximum displ.:     0.0429770 α      in ANC's #7, #6, #8, ...

........................................................................
.............................. CYCLE   14 ..............................
........................................................................

 iter      E             dE          RMSdq      gap      omega  full diag
   1    -21.2735012 -0.212735E+02  0.909E-02    3.41       0.0  T
   2    -21.2735014 -0.200211E-06  0.538E-02    3.41       1.0  T
   3    -21.2735002  0.121769E-05  0.979E-03    3.41       2.6  T
   4    -21.2735015 -0.137736E-05  0.146E-03    3.41      17.6  T
   5    -21.2735015 -0.943151E-08  0.819E-04    3.41      31.5  T
   6    -21.2735015 -0.930843E-09  0.173E-04    3.41     149.1  T
     SCC iter.                  ...        0 min,  0.101 sec
     gradient                   ...        0 min,  0.002 sec
 * total energy  :   -20.9162068 Eh     change       -0.5389408E-04 Eh
   gradient norm :     0.0034436 Eh/α   predicted    -0.3212084E-04 ( -40.40%)
   displ. norm   :     0.2565057 α      lambda       -0.1564461E-03
   maximum displ.:     0.1564284 α      in ANC's #7, #6, #4, ...

........................................................................
.............................. CYCLE   15 ..............................
........................................................................

 iter      E             dE          RMSdq      gap      omega  full diag
   1    -21.2725570 -0.212726E+02  0.341E-01    3.37       0.0  T
   2    -21.2725606 -0.356898E-05  0.201E-01    3.39       1.0  T
   3    -21.2725426  0.179562E-04  0.373E-02    3.39       1.0  T
   4    -21.2725629 -0.202551E-04  0.589E-03    3.39       4.4  T
   5    -21.2725631 -0.174350E-06  0.317E-03    3.39       8.2  T
   6    -21.2725631 -0.157548E-07  0.139E-03    3.39      18.6  T
   7    -21.2725631 -0.336211E-08  0.257E-04    3.39     100.5  T
   8    -21.2725631 -0.289766E-09  0.120E-04    3.39     214.4  T
     SCC iter.                  ...        0 min,  0.106 sec
     gradient                   ...        0 min,  0.001 sec
 * total energy  :   -20.9162979 Eh     change       -0.9117018E-04 Eh
   gradient norm :     0.0096272 Eh/α   predicted    -0.8337149E-04 (  -8.55%)
   displ. norm   :     0.0490368 α      lambda       -0.9076230E-04
   maximum displ.:     0.0344953 α      in ANC's #6, #7, #25, ...

........................................................................
.............................. CYCLE   16 ..............................
........................................................................

 iter      E             dE          RMSdq      gap      omega  full diag
   1    -21.2737088 -0.212737E+02  0.561E-02    3.41       0.0  T
   2    -21.2737092 -0.420418E-06  0.334E-02    3.41       1.0  T
   3    -21.2737092  0.291775E-07  0.321E-03    3.40       8.0  T
   4    -21.2737093 -0.872056E-07  0.133E-03    3.40      19.4  T
   5    -21.2737093 -0.707103E-08  0.995E-04    3.40      25.9  T
   6    -21.2737093 -0.958084E-08  0.364E-04    3.40      70.8  T
     SCC iter.                  ...        0 min,  0.101 sec
     gradient                   ...        0 min,  0.001 sec
 * total energy  :   -20.9163613 Eh     change       -0.6332059E-04 Eh
   gradient norm :     0.0041452 Eh/α   predicted    -0.4548946E-04 ( -28.16%)
   displ. norm   :     0.2142254 α      lambda       -0.1113535E-03
   maximum displ.:     0.1300422 α      in ANC's #6, #7, #25, ...

........................................................................
.............................. CYCLE   17 ..............................
........................................................................

 iter      E             dE          RMSdq      gap      omega  full diag
   1    -21.2729513 -0.212730E+02  0.291E-01    3.39       0.0  T
   2    -21.2729533 -0.199565E-05  0.172E-01    3.39       1.0  T
   3    -21.2729459  0.736304E-05  0.250E-02    3.40       1.0  T
   4    -21.2729546 -0.874687E-05  0.452E-03    3.40       5.7  T
   5    -21.2729547 -0.517221E-07  0.246E-03    3.40      10.5  T
   6    -21.2729547 -0.111219E-07  0.110E-03    3.39      23.4  T
   7    -21.2729547 -0.384064E-08  0.272E-04    3.40      95.0  T
   8    -21.2729547 -0.248509E-09  0.979E-05    3.40     263.8  T
     SCC iter.                  ...        0 min,  0.102 sec
     gradient                   ...        0 min,  0.002 sec
 * total energy  :   -20.9164260 Eh     change       -0.6475109E-04 Eh
   gradient norm :     0.0077090 Eh/α   predicted    -0.5822913E-04 ( -10.07%)
   displ. norm   :     0.1000268 α      lambda       -0.1065167E-03
   maximum displ.:     0.0695438 α      in ANC's #6, #5, #7, ...

........................................................................
.............................. CYCLE   18 ..............................
........................................................................

 iter      E             dE          RMSdq      gap      omega  full diag
   1    -21.2743904 -0.212744E+02  0.972E-02    3.43       0.0  T
   2    -21.2743924 -0.199124E-05  0.571E-02    3.42       1.0  T
   3    -21.2743923  0.570677E-07  0.653E-03    3.42       4.0  T
   4    -21.2743926 -0.302208E-06  0.199E-03    3.42      13.0  T
   5    -21.2743926  0.278623E-08  0.140E-03    3.42      18.4  T
   6    -21.2743926 -0.208170E-07  0.613E-04    3.42      42.1  T
   7    -21.2743926 -0.139083E-08  0.223E-04    3.42     116.0  T
     SCC iter.                  ...        0 min,  0.109 sec
     gradient                   ...        0 min,  0.002 sec
 * total energy  :   -20.9164913 Eh     change       -0.6525572E-04 Eh
   gradient norm :     0.0023829 Eh/α   predicted    -0.5379028E-04 ( -17.57%)
   displ. norm   :     0.2071891 α      lambda       -0.8466056E-04
   maximum displ.:     0.1402368 α      in ANC's #6, #7, #25, ...

........................................................................
.............................. CYCLE   19 ..............................
........................................................................

 iter      E             dE          RMSdq      gap      omega  full diag
   1    -21.2730689 -0.212731E+02  0.265E-01    3.39       0.0  T
   2    -21.2730711 -0.215625E-05  0.156E-01    3.40       1.0  T
   3    -21.2730655  0.553737E-05  0.219E-02    3.40       1.2  T
   4    -21.2730721 -0.660092E-05  0.451E-03    3.40       5.7  T
   5    -21.2730722 -0.812504E-07  0.249E-03    3.40      10.4  T
   6    -21.2730722 -0.181937E-07  0.130E-03    3.40      19.9  T
   7    -21.2730722 -0.338765E-08  0.247E-04    3.40     104.4  T
   8    -21.2730722 -0.215607E-09  0.105E-04    3.40     244.8  T
     SCC iter.                  ...        0 min,  0.108 sec
     gradient                   ...        0 min,  0.001 sec
 * total energy  :   -20.9165365 Eh     change       -0.4525848E-04 Eh
   gradient norm :     0.0068268 Eh/α   predicted    -0.4414849E-04 (  -2.45%)
   displ. norm   :     0.0897363 α      lambda       -0.8669442E-04
   maximum displ.:     0.0526208 α      in ANC's #5, #6, #4, ...

........................................................................
.............................. CYCLE   20 ..............................
........................................................................

 iter      E             dE          RMSdq      gap      omega  full diag
   1    -21.2740435 -0.212740E+02  0.586E-02    3.42       0.0  T
   2    -21.2740438 -0.261856E-06  0.348E-02    3.42       1.0  T
   3    -21.2740437  0.646237E-07  0.350E-03    3.42       7.4  T
   4    -21.2740438 -0.985908E-07  0.165E-03    3.42      15.6  T
   5    -21.2740439 -0.241124E-07  0.848E-04    3.42      30.4  T
   6    -21.2740439 -0.513257E-08  0.364E-04    3.42      70.9  T
     SCC iter.                  ...        0 min,  0.107 sec
     gradient                   ...        0 min,  0.006 sec
 * total energy  :   -20.9165885 Eh     change       -0.5197864E-04 Eh
   gradient norm :     0.0033633 Eh/α   predicted    -0.4369629E-04 ( -15.93%)
   displ. norm   :     0.1203710 α      lambda       -0.3978354E-04
   maximum displ.:     0.0737983 α      in ANC's #6, #5, #7, ...
 * RMSD in coord.:     0.4567989 α      energy gain  -0.4356102E-02 Eh

generating ANC from model Hessian ...
Using Lindh-Hessian (1995)
 Shifting diagonal of input Hessian by   8.867401612858261E-003
 Lowest  eigenvalues of input Hessian
    0.000000    0.000000    0.000000    0.000000    0.000000    0.000000
    0.010000    0.010223    0.010556    0.017964    0.019929    0.020982
    0.025785    0.037039    0.056018    0.059157    0.068619    0.074490
 Highest eigenvalues
    1.169651    1.173173    1.261484    1.353103    2.192512    2.565767
 

........................................................................
.............................. CYCLE   21 ..............................
........................................................................

 iter      E             dE          RMSdq      gap      omega  full diag
   1    -21.2735860 -0.212736E+02  0.122E-01    3.41       0.0  T
   2    -21.2735863 -0.302000E-06  0.721E-02    3.41       1.0  T
   3    -21.2735829  0.344132E-05  0.162E-02    3.41       1.6  T
   4    -21.2735867 -0.381586E-05  0.196E-03    3.41      13.1  T
   5    -21.2735867 -0.537801E-08  0.991E-04    3.41      26.1  T
   6    -21.2735867 -0.159761E-08  0.435E-04    3.41      59.4  T
     SCC iter.                  ...        0 min,  0.103 sec
     gradient                   ...        0 min,  0.001 sec
 * total energy  :   -20.9166154 Eh     change       -0.2693618E-04 Eh
   gradient norm :     0.0034757 Eh/α   predicted     0.0000000E+00 (-100.00%)
   displ. norm   :     0.0403986 α      lambda       -0.5577972E-04
   maximum displ.:     0.0213585 α      in ANC's #4, #7, #8, ...

........................................................................
.............................. CYCLE   22 ..............................
........................................................................

 iter      E             dE          RMSdq      gap      omega  full diag
   1    -21.2742248 -0.212742E+02  0.533E-02    3.42       0.0  T
   2    -21.2742251 -0.310376E-06  0.320E-02    3.42       1.0  T
   3    -21.2742251 -0.264086E-07  0.250E-03    3.42      10.3  T
   4    -21.2742252 -0.326778E-07  0.115E-03    3.42      22.4  T
   5    -21.2742252 -0.717229E-09  0.615E-04    3.42      42.0  T
   6    -21.2742252 -0.272599E-08  0.303E-04    3.42      85.1  T
     SCC iter.                  ...        0 min,  0.101 sec
     gradient                   ...        0 min,  0.002 sec
 * total energy  :   -20.9166314 Eh     change       -0.1592945E-04 Eh
   gradient norm :     0.0024772 Eh/α   predicted    -0.2793514E-04 (  75.37%)
   displ. norm   :     0.0261220 α      lambda       -0.3049543E-04
   maximum displ.:     0.0165217 α      in ANC's #3, #7, #5, ...

........................................................................
.............................. CYCLE   23 ..............................
........................................................................

 iter      E             dE          RMSdq      gap      omega  full diag
   1    -21.2746613 -0.212747E+02  0.328E-02    3.43       0.0  T
   2    -21.2746614 -0.147894E-06  0.194E-02    3.42       1.3  T
   3    -21.2746611  0.288246E-06  0.503E-03    3.42       5.1  T
   4    -21.2746615 -0.317086E-06  0.150E-03    3.42      17.2  T
   5    -21.2746615 -0.197056E-07  0.595E-04    3.42      43.4  T
   6    -21.2746615 -0.181420E-08  0.297E-04    3.42      87.0  T
     SCC iter.                  ...        0 min,  0.102 sec
     gradient                   ...        0 min,  0.001 sec
 * total energy  :   -20.9166499 Eh     change       -0.1849739E-04 Eh
   gradient norm :     0.0010854 Eh/α   predicted    -0.1525800E-04 ( -17.51%)
   displ. norm   :     0.0434738 α      lambda       -0.9679065E-05
   maximum displ.:     0.0344990 α      in ANC's #3, #7, #5, ...

........................................................................
.............................. CYCLE   24 ..............................
........................................................................

 iter      E             dE          RMSdq      gap      omega  full diag
   1    -21.2745661 -0.212746E+02  0.499E-02    3.42       0.0  T
   2    -21.2745662 -0.692339E-07  0.294E-02    3.42       1.0  T
   3    -21.2745660  0.195961E-06  0.426E-03    3.42       6.1  T
   4    -21.2745662 -0.242693E-06  0.938E-04    3.42      27.5  T
   5    -21.2745662 -0.166896E-08  0.428E-04    3.42      60.4  T
     SCC iter.                  ...        0 min,  0.107 sec
     gradient                   ...        0 min,  0.001 sec
 * total energy  :   -20.9166596 Eh     change       -0.9757626E-05 Eh
   gradient norm :     0.0010014 Eh/α   predicted    -0.4844701E-05 ( -50.35%)
   displ. norm   :     0.0573716 α      lambda       -0.9355317E-05
   maximum displ.:     0.0388244 α      in ANC's #3, #5, #7, ...

........................................................................
.............................. CYCLE   25 ..............................
........................................................................

 iter      E             dE          RMSdq      gap      omega  full diag
   1    -21.2743472 -0.212743E+02  0.762E-02    3.41       0.0  T
   2    -21.2743473 -0.169598E-06  0.449E-02    3.42       1.0  T
   3    -21.2743470  0.304911E-06  0.547E-03    3.42       4.7  T
   4    -21.2743474 -0.389857E-06  0.133E-03    3.42      19.4  T
   5    -21.2743474 -0.567832E-08  0.547E-04    3.42      47.2  T
   6    -21.2743474 -0.548610E-09  0.233E-04    3.42     110.8  T
     SCC iter.                  ...        0 min,  0.101 sec
     gradient                   ...        0 min,  0.001 sec
 * total energy  :   -20.9166699 Eh     change       -0.1029063E-04 Eh
   gradient norm :     0.0013988 Eh/α   predicted    -0.4683456E-05 ( -54.49%)
   displ. norm   :     0.0872606 α      lambda       -0.1129949E-04
   maximum displ.:     0.0551869 α      in ANC's #3, #5, #8, ...

........................................................................
.............................. CYCLE   26 ..............................
........................................................................

 iter      E             dE          RMSdq      gap      omega  full diag
   1    -21.2741962 -0.212742E+02  0.121E-01    3.41       0.0  T
   2    -21.2741966 -0.372288E-06  0.716E-02    3.41       1.0  T
   3    -21.2741963  0.299167E-06  0.621E-03    3.41       4.2  T
   4    -21.2741968 -0.459927E-06  0.204E-03    3.41      12.6  T
   5    -21.2741968 -0.210656E-07  0.862E-04    3.41      29.9  T
   6    -21.2741968 -0.114533E-08  0.328E-04    3.41      78.7  T
     SCC iter.                  ...        0 min,  0.102 sec
     gradient                   ...        0 min,  0.001 sec
 * total energy  :   -20.9166804 Eh     change       -0.1052713E-04 Eh
   gradient norm :     0.0022701 Eh/α   predicted    -0.5669340E-05 ( -46.15%)
   displ. norm   :     0.0338228 α      lambda       -0.7177289E-05
   maximum displ.:     0.0223938 α      in ANC's #5, #6, #8, ...

........................................................................
.............................. CYCLE   27 ..............................
........................................................................

 iter      E             dE          RMSdq      gap      omega  full diag
   1    -21.2743270 -0.212743E+02  0.514E-02    3.42       0.0  T
   2    -21.2743271 -0.730484E-07  0.303E-02    3.42       1.0  T
   3    -21.2743270  0.614181E-07  0.280E-03    3.42       9.2  T
   4    -21.2743271 -0.896532E-07  0.993E-04    3.42      26.0  T
   5    -21.2743271 -0.614526E-08  0.461E-04    3.42      56.0  T
     SCC iter.                  ...        0 min,  0.103 sec
     gradient                   ...        0 min,  0.001 sec
 * total energy  :   -20.9166862 Eh     change       -0.5772170E-05 Eh
   gradient norm :     0.0015045 Eh/α   predicted    -0.3593605E-05 ( -37.74%)
   displ. norm   :     0.0836440 α      lambda       -0.9842881E-05
   maximum displ.:     0.0606673 α      in ANC's #5, #4, #6, ...

........................................................................
.............................. CYCLE   28 ..............................
........................................................................

 iter      E             dE          RMSdq      gap      omega  full diag
   1    -21.2745499 -0.212745E+02  0.128E-01    3.42       0.0  T
   2    -21.2745503 -0.398561E-06  0.753E-02    3.42       1.0  T
   3    -21.2745499  0.427282E-06  0.703E-03    3.42       3.7  T
   4    -21.2745505 -0.601710E-06  0.224E-03    3.42      11.5  T
   5    -21.2745505 -0.273619E-07  0.103E-03    3.42      25.1  T
   6    -21.2745505 -0.319447E-08  0.407E-04    3.42      63.4  T
   7    -21.2745505 -0.293447E-09  0.130E-04    3.42     199.0  T
     SCC iter.                  ...        0 min,  0.105 sec
     gradient                   ...        0 min,  0.001 sec
 * total energy  :   -20.9166937 Eh     change       -0.7529973E-05 Eh
   gradient norm :     0.0008078 Eh/α   predicted    -0.4937684E-05 ( -34.43%)
   displ. norm   :     0.0131123 α      lambda       -0.2174036E-05
   maximum displ.:     0.0074760 α      in ANC's #5, #3, #1, ...

........................................................................
.............................. CYCLE   29 ..............................
........................................................................

 iter      E             dE          RMSdq      gap      omega  full diag
   1    -21.2746742 -0.212747E+02  0.140E-02    3.42       0.0  T
   2    -21.2746742 -0.165975E-07  0.826E-03    3.42       3.1  T
   3    -21.2746742  0.590085E-08  0.876E-04    3.42      29.5  T
   4    -21.2746742 -0.610693E-08  0.485E-04    3.42      53.3  T
     SCC iter.                  ...        0 min,  0.107 sec
     gradient                   ...        0 min,  0.001 sec
 * total energy  :   -20.9166961 Eh     change       -0.2327746E-05 Eh
   gradient norm :     0.0008718 Eh/α   predicted    -0.1086013E-05 ( -53.34%)
   displ. norm   :     0.0615462 α      lambda       -0.4507951E-05
   maximum displ.:     0.0494051 α      in ANC's #5, #8, #7, ...

........................................................................
.............................. CYCLE   30 ..............................
........................................................................

 iter      E             dE          RMSdq      gap      omega  full diag
   1    -21.2742614 -0.212743E+02  0.919E-02    3.41       0.0  T
   2    -21.2742617 -0.228514E-06  0.543E-02    3.42       1.0  T
   3    -21.2742608  0.886349E-06  0.855E-03    3.42       3.0  T
   4    -21.2742618 -0.102223E-05  0.148E-03    3.42      17.4  T
   5    -21.2742618 -0.684179E-08  0.823E-04    3.42      31.4  T
   6    -21.2742618 -0.202148E-08  0.410E-04    3.42      63.0  T
     SCC iter.                  ...        0 min,  0.110 sec
     gradient                   ...        0 min,  0.002 sec
 * total energy  :   -20.9166987 Eh     change       -0.2667949E-05 Eh
   gradient norm :     0.0011787 Eh/α   predicted    -0.2258949E-05 ( -15.33%)
   displ. norm   :     0.0119740 α      lambda       -0.1662453E-05
   maximum displ.:     0.0050891 α      in ANC's #3, #8, #4, ...

........................................................................
.............................. CYCLE   31 ..............................
........................................................................

 iter      E             dE          RMSdq      gap      omega  full diag
   1    -21.2746115 -0.212746E+02  0.185E-02    3.42       0.0  T
   2    -21.2746116 -0.230709E-07  0.109E-02    3.42       2.4  T
   3    -21.2746116  0.329321E-08  0.927E-04    3.42      27.8  T
   4    -21.2746116 -0.758508E-08  0.352E-04    3.42      73.3  T
     SCC iter.                  ...        0 min,  0.104 sec
     gradient                   ...        0 min,  0.001 sec
 * total energy  :   -20.9167002 Eh     change       -0.1434410E-05 Eh
   gradient norm :     0.0003219 Eh/α   predicted    -0.8300815E-06 ( -42.13%)
   displ. norm   :     0.0148055 α      lambda       -0.8466271E-06
   maximum displ.:     0.0102087 α      in ANC's #5, #1, #3, ...

........................................................................
.............................. CYCLE   32 ..............................
........................................................................

 iter      E             dE          RMSdq      gap      omega  full diag
   1    -21.2746136 -0.212746E+02  0.179E-02    3.42       0.0  T
   2    -21.2746136 -0.389770E-08  0.106E-02    3.42       2.4  T
   3    -21.2746134  0.187816E-06  0.372E-03    3.42       6.9  T
   4    -21.2746136 -0.202375E-06  0.281E-04    3.42      92.0  T
   5    -21.2746136 -0.104027E-09  0.150E-04    3.42     172.3  T
     SCC iter.                  ...        0 min,  0.102 sec
     gradient                   ...        0 min,  0.002 sec
 * total energy  :   -20.9167012 Eh     change       -0.1002196E-05 Eh
   gradient norm :     0.0001958 Eh/α   predicted    -0.4239238E-06 ( -57.70%)
   displ. norm   :     0.0380564 α      lambda       -0.1143336E-05
   maximum displ.:     0.0289701 α      in ANC's #5, #1, #3, ...

........................................................................
.............................. CYCLE   33 ..............................
........................................................................

 iter      E             dE          RMSdq      gap      omega  full diag
   1    -21.2745990 -0.212746E+02  0.509E-02    3.42       0.0  T
   2    -21.2745991 -0.706353E-07  0.301E-02    3.42       1.0  T
   3    -21.2745986  0.504782E-06  0.628E-03    3.42       4.1  T
   4    -21.2745991 -0.562436E-06  0.835E-04    3.42      30.9  T
   5    -21.2745991 -0.166754E-08  0.416E-04    3.42      62.0  T
     SCC iter.                  ...        0 min,  0.101 sec
     gradient                   ...        0 min,  0.001 sec
 * total energy  :   -20.9167023 Eh     change       -0.1087921E-05 Eh
   gradient norm :     0.0004062 Eh/α   predicted    -0.5707185E-06 ( -47.54%)
   displ. norm   :     0.0166362 α      lambda       -0.3381050E-06
   maximum displ.:     0.0118390 α      in ANC's #5, #1, #8, ...

........................................................................
.............................. CYCLE   34 ..............................
........................................................................

 iter      E             dE          RMSdq      gap      omega  full diag
   1    -21.2745076 -0.212745E+02  0.202E-02    3.42       0.0  T
   2    -21.2745076 -0.121703E-07  0.119E-02    3.42       2.2  T
   3    -21.2745075  0.397365E-07  0.186E-03    3.42      13.8  T
   4    -21.2745076 -0.469919E-07  0.382E-04    3.42      67.5  T
   5    -21.2745076 -0.513168E-09  0.194E-04    3.42     133.1  T
     SCC iter.                  ...        0 min,  0.103 sec
     gradient                   ...        0 min,  0.001 sec
 * total energy  :   -20.9167026 Eh     change       -0.3818245E-06 Eh
   gradient norm :     0.0003352 Eh/α   predicted    -0.1675655E-06 ( -56.11%)
   displ. norm   :     0.0207497 α      lambda       -0.3112624E-06
   maximum displ.:     0.0156297 α      in ANC's #5, #1, #8, ...

........................................................................
.............................. CYCLE   35 ..............................
........................................................................

 iter      E             dE          RMSdq      gap      omega  full diag
   1    -21.2745309 -0.212745E+02  0.265E-02    3.42       0.0  T
   2    -21.2745309 -0.230729E-07  0.156E-02    3.42       1.7  T
   3    -21.2745309  0.588674E-07  0.229E-03    3.42      11.3  T
   4    -21.2745309 -0.698428E-07  0.501E-04    3.42      51.6  T
   5    -21.2745309 -0.115891E-08  0.252E-04    3.42     102.6  T
     SCC iter.                  ...        0 min,  0.099 sec
     gradient                   ...        0 min,  0.001 sec
 * total energy  :   -20.9167030 Eh     change       -0.3454156E-06 Eh
   gradient norm :     0.0002308 Eh/α   predicted    -0.1554057E-06 ( -55.01%)
   displ. norm   :     0.0121728 α      lambda       -0.1429203E-06
   maximum displ.:     0.0090599 α      in ANC's #5, #1, #8, ...

........................................................................
.............................. CYCLE   36 ..............................
........................................................................

 iter      E             dE          RMSdq      gap      omega  full diag
   1    -21.2745666 -0.212746E+02  0.149E-02    3.42       0.0  T
   2    -21.2745666 -0.804904E-08  0.877E-03    3.42       2.9  T
   3    -21.2745666  0.138313E-07  0.117E-03    3.42      22.2  T
   4    -21.2745666 -0.170287E-07  0.326E-04    3.42      79.2  T
   5    -21.2745666 -0.646164E-09  0.168E-04    3.42     153.4  T
     SCC iter.                  ...        0 min,  0.105 sec
     gradient                   ...        0 min,  0.004 sec
 * total energy  :   -20.9167031 Eh     change       -0.1334596E-06 Eh
   gradient norm :     0.0000733 Eh/α   predicted    -0.6992092E-07 ( -47.61%)
   displ. norm   :     0.0074783 α      lambda       -0.2139151E-07
   maximum displ.:     0.0059937 α      in ANC's #5, #8, #1, ...

........................................................................
.............................. CYCLE   37 ..............................
........................................................................

 iter      E             dE          RMSdq      gap      omega  full diag
   1    -21.2745627 -0.212746E+02  0.107E-02    3.42       0.0  T
   2    -21.2745628 -0.342796E-08  0.631E-03    3.42       4.1  T
   3    -21.2745627  0.966806E-08  0.916E-04    3.42      28.2  T
   4    -21.2745628 -0.114937E-07  0.186E-04    3.42     138.9  T
     SCC iter.                  ...        0 min,  0.110 sec
     gradient                   ...        0 min,  0.001 sec
 * total energy  :   -20.9167031 Eh     change       -0.2307619E-07 Eh
   gradient norm :     0.0000954 Eh/α   predicted    -0.1170708E-07 ( -49.27%)
   displ. norm   :     0.0006457 α      lambda       -0.1048971E-07
   maximum displ.:     0.0003990 α      in ANC's #3, #5, #8, ...

   *** GEOMETRY OPTIMIZATION CONVERGED AFTER 37 ITERATIONS ***

------------------------------------------------------------------------
 total energy gain   :        -0.0044707 Eh       -2.8054 kcal/mol
 total RMSD          :         0.5545635 a0        0.2935 Å
 total power (kW/mol):        -0.3172417 (step)   -2.7013 (real)
------------------------------------------------------------------------

 ANCopt (total)                0 d,  0 h,  0 min,  4.345 sec
 optimizer setup                ...        0 min,  0.000 sec (  0.003%)
 model hessian                  ...        0 min,  0.004 sec (  0.089%)
 ANC generation                 ...        0 min,  0.001 sec (  0.015%)
 coordinate transformation      ...        0 min,  0.000 sec (  0.010%)
 single point calculation       ...        0 min,  4.318 sec ( 99.377%)
 optimization log               ...        0 min,  0.003 sec (  0.074%)
 hessian update                 ...        0 min,  0.011 sec (  0.256%)
 rational function              ...        0 min,  0.006 sec (  0.127%)

================
 final structure:
================
15
 xtb: 6.7.0 (08769fc)
C           -3.34498639442769       -0.34128319657863        0.23926432340502
C           -1.93950011749862       -0.10983370236107       -0.01092134569913
C           -0.77958786255975        0.09071496076183       -0.23809003181043
C            0.63756603616581        0.34568094726216       -0.46325415198962
C            1.08494000835688        1.66443520920545        0.16801799521448
C            1.40481078874263       -0.83889083345964        0.07724514005427
O            2.30545280548014       -0.78972861621797        0.86886410850662
H           -3.81957821022940       -0.75524100093651       -0.65013077408868
H           -3.83445353348384        0.59725709767381        0.49819232497717
H           -3.46412587340940       -1.04240075214424        1.06509613814266
H            0.81434409945106        0.36707241269211       -1.54861863098476
H            0.53294793164227        2.49622331933588       -0.26247989235404
H            2.14909084137494        1.81247716265118       -0.00178355043990
H            0.90771248473224        1.64159504165742        1.24108768911635
H            1.04557911756269       -1.80797500914178       -0.32402788855002
 
 Bond Distances (Angstroems)
 ---------------------------
C1-C2=1.4462         C1-H8=1.0898         C1-H9=1.0897         C1-H10=1.0898        C2-C1=1.4462         C2-C3=1.1988         
C3-C2=1.1988         C3-C4=1.4574         C4-C3=1.4574         C4-C5=1.5290         C4-C6=1.5113         C4-H11=1.0999        
C5-C4=1.5290         C5-H12=1.0872        C5-H13=1.0877        C5-H14=1.0878        C6-C4=1.5113         C6-O7=1.2001         
C6-H15=1.1087        O7-C6=1.2001         H8-C1=1.0898         H9-C1=1.0897         H10-C1=1.0898        H11-C4=1.0999        
H12-C5=1.0872        H13-C5=1.0877        H14-C5=1.0878        H15-C6=1.1087        
 C  H  Rav=1.0926 sigma=0.0072  Rmin=1.0872  Rmax=1.1087     8
 C  C  Rav=1.4285 sigma=0.1190  Rmin=1.1988  Rmax=1.5290     5
 O  C  Rav=1.2001 sigma=0.0000  Rmin=1.2001  Rmax=1.2001     1
 
 selected bond angles (degree)
 --------------------
H8-C1-C2=110.05                H9-C1-C2=109.86                H9-C1-H8=108.99                H10-C1-C2=109.89               
H10-C1-H8=109.05               H10-C1-H9=108.96               C3-C2-C1=178.94                C4-C3-C2=177.93                
C5-C4-C3=111.82                C6-C4-C3=107.53                C6-C4-C5=112.32                H11-C4-C3=108.19               
H11-C4-C5=110.10               H11-C4-C6=106.65               H12-C5-C4=110.36               H13-C5-C4=109.83               
H13-C5-H12=109.32              H14-C5-C4=109.97               H14-C5-H12=108.90              H14-C5-H13=108.43              
O7-C6-C4=125.79                H15-C6-C4=113.03               H15-C6-O7=121.18               
 
 selected dihedral angles (degree)
 ---------------------------------
C3-C2-C1-H8= 43.96            C3-C2-C1-H9=283.94            C3-C2-C1-H10=164.07           C4-C3-C2-C1=144.13            
C5-C4-C3-C2=311.49            C6-C4-C3-C2= 75.24            H11-C4-C3-C2=190.09           H12-C5-C4-C3=299.45           
H12-C5-C4-C6=178.44           H12-C5-C4-H11= 59.75          H13-C5-C4-C3=178.86           H13-C5-C4-C6= 57.86           
H13-C5-C4-H11=299.16          H14-C5-C4-C3= 59.61           H14-C5-C4-C6=298.60           H14-C5-C4-H11=179.91          
O7-C6-C4-C3=233.62            O7-C6-C4-C5=357.06            O7-C6-C4-H11=117.76           H15-C6-C4-C3= 52.85           
H15-C6-C4-C5=176.29           H15-C6-C4-H11=296.99          
           -------------------------------------------------
          |                Final Singlepoint                |
           -------------------------------------------------

          ...................................................
          :                      SETUP                      :
          :.................................................:
          :  # basis functions                  36          :
          :  # atomic orbitals                  36          :
          :  # shells                           22          :
          :  # electrons                        38          :
          :  max. iterations                  4000          :
          :  Hamiltonian                  GFN2-xTB          :
          :  restarted?                      false          :
          :  GBSA solvation                   true          :
          :  PC potential                    false          :
          :  electronic temp.          300.0000000     K    :
          :  accuracy                    1.0000000          :
          :  -> integral cutoff          0.2500000E+02      :
          :  -> integral neglect         0.1000000E-07      :
          :  -> SCF convergence          0.1000000E-05 Eh   :
          :  -> wf. convergence          0.1000000E-03 e    :
          :  Broyden damping             0.4000000          :
          :  net charge                          0          :
          :  unpaired electrons                  0          :
          ...................................................

 iter      E             dE          RMSdq      gap      omega  full diag
   1    -21.2745628 -0.212746E+02  0.896E-05    3.42       0.0  T
   2    -21.2745628 -0.872902E-11  0.604E-05    3.42     427.5  T
   3    -21.2745628  0.796163E-11  0.477E-05    3.42     541.7  T

   *** convergence criteria satisfied after 3 iterations ***

         #    Occupation            Energy/Eh            Energy/eV
      -------------------------------------------------------------
         1        2.0000           -0.7254255             -19.7398
       ...           ...                  ...                  ...
        13        2.0000           -0.4906007             -13.3499
        14        2.0000           -0.4809036             -13.0861
        15        2.0000           -0.4648828             -12.6501
        16        2.0000           -0.4547878             -12.3754
        17        2.0000           -0.4210573             -11.4576
        18        2.0000           -0.4033837             -10.9766
        19        2.0000           -0.3950007             -10.7485 (HOMO)
        20                         -0.2693312              -7.3289 (LUMO)
        21                         -0.1528830              -4.1602
        22                         -0.1490098              -4.0548
        23                          0.0453342               1.2336
        24                          0.0748455               2.0366
       ...                                ...                  ...
        36                          1.4062638              38.2664
      -------------------------------------------------------------
                  HL-Gap            0.1256695 Eh            3.4196 eV
             Fermi-level           -0.3321659 Eh           -9.0387 eV

 SCC (total)                   0 d,  0 h,  0 min,  0.110 sec
 SCC setup                      ...        0 min,  0.000 sec (  0.191%)
 Dispersion                     ...        0 min,  0.000 sec (  0.045%)
 classical contributions        ...        0 min,  0.000 sec (  0.011%)
 integral evaluation            ...        0 min,  0.000 sec (  0.417%)
 iterations                     ...        0 min,  0.106 sec ( 96.544%)
 molecular gradient             ...        0 min,  0.003 sec (  2.658%)
 printout                       ...        0 min,  0.000 sec (  0.100%)

         :::::::::::::::::::::::::::::::::::::::::::::::::::::
         ::                     SUMMARY                     ::
         :::::::::::::::::::::::::::::::::::::::::::::::::::::
         :: total energy             -20.916703148255 Eh    ::
         :: total w/o Gsasa/hb       -20.907950371623 Eh    ::
         :: gradient norm              0.000095361624 Eh/a0 ::
         :: HOMO-LUMO gap              3.419640793302 eV    ::
         ::.................................................::
         :: SCC energy               -21.274544198225 Eh    ::
         :: -> isotropic ES            0.026263216084 Eh    ::
         :: -> anisotropic ES          0.001784838379 Eh    ::
         :: -> anisotropic XC          0.011799260736 Eh    ::
         :: -> dispersion             -0.008442559985 Eh    ::
         :: -> Gsolv                  -0.010784656337 Eh    ::
         ::    -> Gelec               -0.002031879704 Eh    ::
         ::    -> Gsasa               -0.010960919771 Eh    ::
         ::    -> Ghb                  0.000000000000 Eh    ::
         ::    -> Gshift               0.002208143139 Eh    ::
         :: repulsion energy           0.357841049970 Eh    ::
         :: add. restraining           0.000000000000 Eh    ::
         :: total charge               0.000000000000 e     ::
         :::::::::::::::::::::::::::::::::::::::::::::::::::::

           -------------------------------------------------
          |                Property Printout                |
           -------------------------------------------------

    * Orbital Energies and Occupations

         #    Occupation            Energy/Eh            Energy/eV
      -------------------------------------------------------------
         1        2.0000           -0.7254255             -19.7398
       ...           ...                  ...                  ...
         7        2.0000           -0.5666525             -15.4194
         8        2.0000           -0.5558565             -15.1256
         9        2.0000           -0.5277517             -14.3609
        10        2.0000           -0.5167440             -14.0613
        11        2.0000           -0.4990354             -13.5794
        12        2.0000           -0.4921865             -13.3931
        13        2.0000           -0.4906007             -13.3499
        14        2.0000           -0.4809036             -13.0861
        15        2.0000           -0.4648828             -12.6501
        16        2.0000           -0.4547878             -12.3754
        17        2.0000           -0.4210573             -11.4576
        18        2.0000           -0.4033837             -10.9766
        19        2.0000           -0.3950007             -10.7485 (HOMO)
        20                         -0.2693312              -7.3289 (LUMO)
        21                         -0.1528830              -4.1602
        22                         -0.1490098              -4.0548
        23                          0.0453342               1.2336
        24                          0.0748455               2.0366
        25                          0.1355344               3.6881
        26                          0.1588956               4.3238
        27                          0.1690419               4.5999
        28                          0.1781275               4.8471
        29                          0.2042995               5.5593
        30                          0.2291539               6.2356
       ...                                ...                  ...
        36                          1.4062638              38.2664
      -------------------------------------------------------------
                  HL-Gap            0.1256695 Eh            3.4196 eV
             Fermi-level           -0.3321659 Eh           -9.0387 eV

     #   Z          covCN         q      C6AA      α(0)
     1   6 C        3.753    -0.089    22.254     6.727
     2   6 C        1.960    -0.041    32.181     9.161
     3   6 C        1.984    -0.063    32.752     9.242
     4   6 C        3.854    -0.010    20.725     6.475
     5   6 C        3.758    -0.098    22.419     6.751
     6   6 C        2.774     0.222    23.320     7.909
     7   8 O        0.856    -0.341    20.534     6.075
     8   1 H        0.925     0.060     2.194     2.316
     9   1 H        0.925     0.062     2.178     2.308
    10   1 H        0.925     0.060     2.201     2.320
    11   1 H        0.923     0.074     2.044     2.236
    12   1 H        0.925     0.047     2.358     2.401
    13   1 H        0.925     0.049     2.336     2.390
    14   1 H        0.925     0.049     2.329     2.386
    15   1 H        0.922     0.019     2.750     2.593

 Mol. C6AA /au·bohr⁶  :       2187.748663
 Mol. C8AA /au·bohr⁸  :      50431.112276
 Mol. α(0) /au        :         71.292121


Wiberg/Mayer (AO) data.
largest (>0.10) Wiberg bond orders for each atom

 ---------------------------------------------------------------------------
     #   Z sym  total        # sym  WBO       # sym  WBO       # sym  WBO
 ---------------------------------------------------------------------------
     1   6 C    3.994 --     2 C    1.068     8 H    0.964    10 H    0.963
                             9 H    0.963
     2   6 C    3.979 --     3 C    2.800     1 C    1.068
     3   6 C    3.974 --     2 C    2.800     4 C    1.013
     4   6 C    3.996 --     3 C    1.013     5 C    0.991     6 C    0.978
                            11 H    0.917
     5   6 C    3.993 --     4 C    0.991    12 H    0.987    14 H    0.987
                            13 H    0.984
     6   6 C    3.905 --     7 O    1.917     4 C    0.978    15 H    0.932
     7   8 O    2.088 --     6 C    1.917
     8   1 H    0.996 --     1 C    0.964
     9   1 H    0.995 --     1 C    0.963
    10   1 H    0.996 --     1 C    0.963
    11   1 H    0.995 --     4 C    0.917
    12   1 H    0.998 --     5 C    0.987
    13   1 H    0.997 --     5 C    0.984
    14   1 H    0.998 --     5 C    0.987
    15   1 H    1.000 --     6 C    0.932
 ---------------------------------------------------------------------------

Topologies differ in total number of bonds
Writing topology from bond orders to xtbtopo.mol

molecular dipole:
                 x           y           z       tot (Debye)
 q only:       -1.097       0.291      -0.591
   full:       -1.191       0.208      -0.717       3.574
molecular quadrupole (traceless):
                xx          xy          yy          xz          yz          zz
 q only:       -0.329       3.399       1.080      -4.575       1.192      -0.751
  q+dip:        0.896       4.092       0.515      -6.478       1.216      -1.411
   full:       -0.614       3.730       1.071      -6.563       1.295      -0.457

           -------------------------------------------------
          |                Geometry Summary                 |
           -------------------------------------------------

      molecular mass/u    :       96.1273463
   center of mass at/Å    :       -0.0426543       0.0045635       0.1163403
  moments of inertia/u·Å² :        0.9220135E+02   0.3826598E+03   0.4396704E+03
rotational constants/cm⁻¹ :        0.1828350E+00   0.4405383E-01   0.3834153E-01

 * 10 selected distances

     #   Z          #   Z                                           value/Å
     2   6 C        3   6 C                                       1.1988420
     4   6 C        5   6 C                                       1.5289739 (max)
     6   6 C        7   8 O                                       1.2000974
     1   6 C        8   1 H                                       1.0897809
     1   6 C        9   1 H                                       1.0897155
     1   6 C       10   1 H                                       1.0898433
     4   6 C       11   1 H                                       1.0998747
     5   6 C       12   1 H                                       1.0871501 (min)
     5   6 C       13   1 H                                       1.0877344
     5   6 C       14   1 H                                       1.0878465

 * 3 distinct bonds (by element types)

   Z      Z             #   av. dist./Å        max./Å        min./Å
   1 H    6 C           7     1.0902779     1.0998747     1.0871501
   6 C    6 C           2     1.3639079     1.5289739     1.1988420
   6 C    8 O           1     1.2000974     1.2000974     1.2000974


optimized geometry written to: xtbopt.xyz


           -------------------------------------------------
          | TOTAL ENERGY              -20.916703148255 Eh   |
          | GRADIENT NORM               0.000095361624 Eh/α |
          | HOMO-LUMO GAP               3.419640793302 eV   |
           -------------------------------------------------

------------------------------------------------------------------------
 * finished run on 2024/08/07 at 19:48:47.514     
------------------------------------------------------------------------
 total:
 * wall-time:     0 d,  0 h,  0 min,  4.588 sec
 *  cpu-time:     0 d,  0 h,  0 min, 33.160 sec
 * ratio c/w:     7.228 speedup
 SCF:
 * wall-time:     0 d,  0 h,  0 min,  0.120 sec
 *  cpu-time:     0 d,  0 h,  0 min,  0.895 sec
 * ratio c/w:     7.466 speedup
 ANC optimizer:
 * wall-time:     0 d,  0 h,  0 min,  4.457 sec
 *  cpu-time:     0 d,  0 h,  0 min, 32.196 sec
 * ratio c/w:     7.224 speedup

