      -----------------------------------------------------------      
     |                   =====================                   |     
     |                           x T B                           |     
     |                   =====================                   |     
     |                         S. Grimme                         |     
     |          Mulliken Center for Theoretical Chemistry        |     
     |                    University of Bonn                     |     
      -----------------------------------------------------------      

   * xtb version 6.7.0 (08769fc) compiled by 'albert@albert-system' on 2024-03-04

   xtb is free software: you can redistribute it and/or modify it under
   the terms of the GNU Lesser General Public License as published by
   the Free Software Foundation, either version 3 of the License, or
   (at your option) any later version.
   
   xtb is distributed in the hope that it will be useful,
   but WITHOUT ANY WARRANTY; without even the implied warranty of
   MERCHANTABILITY or FITNESS FOR A PARTICULAR PURPOSE.  See the
   GNU Lesser General Public License for more details.
   
   Cite this work as:
   * C. Bannwarth, E. Caldeweyher, S. Ehlert, A. Hansen, P. Pracht,
     J. Seibert, S. Spicher, S. Grimme, WIREs Comput. Mol. Sci., 2020, 11,
     e01493. DOI: 10.1002/wcms.1493
   
   for GFN2-xTB:
   * C. Bannwarth, S. Ehlert and S. Grimme., J. Chem. Theory Comput., 2019,
     15, 1652-1671. DOI: 10.1021/acs.jctc.8b01176
   for GFN1-xTB:
   * S. Grimme, C. Bannwarth, P. Shushkov, J. Chem. Theory Comput., 2017,
     13, 1989-2009. DOI: 10.1021/acs.jctc.7b00118
   for GFN0-xTB:
   * P. Pracht, E. Caldeweyher, S. Ehlert, S. Grimme, ChemRxiv, 2019, preprint.
     DOI: 10.26434/chemrxiv.8326202.v1
   for GFN-FF:
   * S. Spicher and S. Grimme, Angew. Chem. Int. Ed., 2020, 59, 15665-15673.
     DOI: 10.1002/anie.202004239
   
   for ALPB and GBSA implicit solvation:
   * S. Ehlert, M. Stahn, S. Spicher, S. Grimme, J. Chem. Theory Comput.,
     2021, 17, 4250-4261. DOI: 10.1021/acs.jctc.1c00471
   
   for ddCOSMO and CPCM-X implicit solvation:
   * M. Stahn, S. Ehlert, S. Grimme, J. Phys. Chem. A,
     2023, XX, XXXX-XXXX. DOI: 10.1021/acs.jpca.3c04382
   
   for DFT-D4:
   * E. Caldeweyher, C. Bannwarth and S. Grimme, J. Chem. Phys., 2017,
     147, 034112. DOI: 10.1063/1.4993215
   * E. Caldeweyher, S. Ehlert, A. Hansen, H. Neugebauer, S. Spicher,
     C. Bannwarth and S. Grimme, J. Chem. Phys., 2019, 150, 154122.
     DOI: 10.1063/1.5090222
   * E. Caldeweyher, J.-M. Mewes, S. Ehlert and S. Grimme, Phys. Chem. Chem. Phys.
     2020, 22, 8499-8512. DOI: 10.1039/D0CP00502A
   
   for sTDA-xTB:
   * S. Grimme and C. Bannwarth, J. Chem. Phys., 2016, 145, 054103.
     DOI: 10.1063/1.4959605
   
   in the mass-spec context:
   * V. Asgeirsson, C. Bauer and S. Grimme, Chem. Sci., 2017, 8, 4879.
     DOI: 10.1039/c7sc00601b
   * J. Koopman and S. Grimme, ACS Omega 2019, 4, 12, 15120-15133.
     DOI: 10.1021/acsomega.9b02011
   
   for metadynamics refer to:
   * S. Grimme, J. Chem. Theory Comput., 2019, 155, 2847-2862
     DOI: 10.1021/acs.jctc.9b00143
   
   for SPH calculations refer to:
   * S. Spicher and S. Grimme, J. Chem. Theory Comput., 2021, 17, 1701-1714
     DOI: 10.1021/acs.jctc.0c01306
   
   for ONIOM refer to:
   * C. Plett, A. Katbashev, S. Ehlert, S. Grimme, M. Bursch,
     Phys. Chem. Chem. Phys., 2023, 25, 17860-17868. DOI: 10.1039/D3CP02178E
   
   for DIPRO refer to:
   * J. Kohn, N. Gildemeister, S. Grimme, D. Fazzi, A. Hansen,
     J. Chem. Phys., 2023, just accepted.
   
   for PTB refer to:
   * S. Grimme, M. Mueller, A. Hansen, J. Chem. Phys., 2023, 158, 124111.
     DOI: 10.1063/5.0137838
   
   with help from (in alphabetical order)
   P. Atkinson, C. Bannwarth, F. Bohle, G. Brandenburg, E. Caldeweyher
   M. Checinski, S. Dohm, S. Ehlert, S. Ehrlich, I. Gerasimov, C. Hölzer
   A. Katbashev, J. Kohn, J. Koopman, C. Lavigne, S. Lehtola, F. März, M. Müller,
   F. Musil, H. Neugebauer, J. Pisarek, C. Plett, P. Pracht, F. Pultar,
   J. Seibert, P. Shushkov, S. Spicher, M. Stahn, M. Steiner, T. Strunk,
   J. Stückrath, T. Rose, and J. Unsleber
   
 * started run on 2024/08/07 at 20:05:23.284     
   ID    Z sym.   atoms
    1    6 C      1, 3, 5, 6
    2    7 N      2, 4
    3    8 O      7
    4    1 H      8-15

           -------------------------------------------------
          |                Calculation Setup                |
           -------------------------------------------------

          program call               : /home/mvotokps/xtb-dist/bin/xtb crest_best.xyz --gfn 2 --alpb toluene --opt vtight -c 0 --iterations 4000
          coordinate file            : crest_best.xyz
          omp threads                :                     8


           -------------------------------------------------
          |                 G F N 2 - x T B                 |
           -------------------------------------------------

        Reference                      10.1021/acs.jctc.8b01176
      * Hamiltonian:
        H0-scaling (s, p, d)           1.850000    2.230000    2.230000
        zeta-weighting                 0.500000
      * Dispersion:
        s8                             2.700000
        a1                             0.520000
        a2                             5.000000
        s9                             5.000000
      * Repulsion:
        kExp                           1.500000    1.000000
        rExp                           1.000000
      * Coulomb:
        alpha                          2.000000
        third order                    shell-resolved
        anisotropic                    true
        a3                             3.000000
        a5                             4.000000
        cn-shift                       1.200000
        cn-exp                         4.000000
        max-rad                        5.000000

      * Solvation model:               ALPB
        Solvent                        toluene
        Parameter file                 internal GFN2-xTB/ALPB
        Dielectric constant                7.0000E+00
        Reference state                gsolv [1 M gas/solution]
        Free energy shift                  2.2081E-03 Eh       1.3856E+00 kcal/mol
        Temperature                        2.9815E+02 K
        Density                            8.6700E-01 kg/L
        Solvent mass                       7.8110E+01 g/mol
        Interaction kernel             P16
        Born radius scaling (c1)           1.7172E+00
        Born radii integrator          GBOBC
        Born offset                        0.0000E+00 a0       0.0000E+00 AA
        H-bond correction              false
        Ion screening                  false
        Surface tension                    1.0000E-05 Eh       1.5569E+01 dyn/cm
        Grid points                               230 per atom

          ...................................................
          :                      SETUP                      :
          :.................................................:
          :  # basis functions                  36          :
          :  # atomic orbitals                  36          :
          :  # shells                           22          :
          :  # electrons                        40          :
          :  max. iterations                  4000          :
          :  Hamiltonian                  GFN2-xTB          :
          :  restarted?                      false          :
          :  GBSA solvation                   true          :
          :  PC potential                    false          :
          :  electronic temp.          300.0000000     K    :
          :  accuracy                    1.0000000          :
          :  -> integral cutoff          0.2500000E+02      :
          :  -> integral neglect         0.1000000E-07      :
          :  -> SCF convergence          0.1000000E-05 Eh   :
          :  -> wf. convergence          0.1000000E-03 e    :
          :  Broyden damping             0.4000000          :
          :  net charge                          0          :
          :  unpaired electrons                  0          :
          ...................................................

 iter      E             dE          RMSdq      gap      omega  full diag
   1    -22.7656267 -0.227656E+02  0.427E+00    2.08       0.0  T
   2    -22.8018104 -0.361837E-01  0.241E+00    2.38       1.0  T
   3    -22.8043915 -0.258110E-02  0.123E+00    2.49       1.0  T
   4    -22.8071428 -0.275136E-02  0.205E-01    2.37       1.0  T
   5    -22.8073363 -0.193521E-03  0.111E-01    2.35       1.0  T
   6    -22.8073920 -0.557025E-04  0.458E-02    2.35       1.0  T
   7    -22.8073932 -0.114446E-05  0.176E-02    2.35       1.5  T
   8    -22.8073953 -0.216273E-05  0.715E-03    2.35       3.6  T
   9    -22.8073955 -0.108240E-06  0.252E-03    2.35      10.2  T
  10    -22.8073955 -0.641150E-08  0.104E-03    2.35      24.8  T
  11    -22.8073955 -0.288252E-08  0.237E-04    2.35     108.9  T
  12    -22.8073955 -0.456190E-09  0.769E-05    2.35     335.8  T

   *** convergence criteria satisfied after 12 iterations ***

         #    Occupation            Energy/Eh            Energy/eV
      -------------------------------------------------------------
         1        2.0000           -0.7203106             -19.6007
       ...           ...                  ...                  ...
        14        2.0000           -0.4746558             -12.9160
        15        2.0000           -0.4734901             -12.8843
        16        2.0000           -0.4701627             -12.7938
        17        2.0000           -0.4638543             -12.6221
        18        2.0000           -0.4054105             -11.0318
        19        2.0000           -0.3845510             -10.4642
        20        2.0000           -0.3773668             -10.2687 (HOMO)
        21                         -0.2910895              -7.9209 (LUMO)
        22                         -0.1671608              -4.5487
        23                         -0.0038627              -0.1051
        24                          0.0809125               2.2017
        25                          0.1203275               3.2743
       ...                                ...                  ...
        36                          0.6686448              18.1948
      -------------------------------------------------------------
                  HL-Gap            0.0862773 Eh            2.3477 eV
             Fermi-level           -0.3342281 Eh           -9.0948 eV

 SCC (total)                   0 d,  0 h,  0 min,  0.118 sec
 SCC setup                      ...        0 min,  0.000 sec (  0.308%)
 Dispersion                     ...        0 min,  0.000 sec (  0.142%)
 classical contributions        ...        0 min,  0.000 sec (  0.010%)
 integral evaluation            ...        0 min,  0.001 sec (  0.748%)
 iterations                     ...        0 min,  0.114 sec ( 96.960%)
 molecular gradient             ...        0 min,  0.001 sec (  1.087%)
 printout                       ...        0 min,  0.001 sec (  0.702%)

         :::::::::::::::::::::::::::::::::::::::::::::::::::::
         ::                     SUMMARY                     ::
         :::::::::::::::::::::::::::::::::::::::::::::::::::::
         :: total energy             -22.523796498132 Eh    ::
         :: total w/o Gsasa/hb       -22.515210642788 Eh    ::
         :: gradient norm              0.076702145975 Eh/a0 ::
         :: HOMO-LUMO gap              2.347724697304 eV    ::
         ::.................................................::
         :: SCC energy               -22.807376390310 Eh    ::
         :: -> isotropic ES            0.046945480589 Eh    ::
         :: -> anisotropic ES          0.002278632402 Eh    ::
         :: -> anisotropic XC          0.013995307698 Eh    ::
         :: -> dispersion             -0.009092324259 Eh    ::
         :: -> Gsolv                  -0.010721020135 Eh    ::
         ::    -> Gelec               -0.002135164790 Eh    ::
         ::    -> Gsasa               -0.010793998483 Eh    ::
         ::    -> Ghb                  0.000000000000 Eh    ::
         ::    -> Gshift               0.002208143139 Eh    ::
         :: repulsion energy           0.283579892178 Eh    ::
         :: add. restraining           0.000000000000 Eh    ::
         :: total charge              -0.000000000000 e     ::
         :::::::::::::::::::::::::::::::::::::::::::::::::::::

      ----------------------------------------------------------- 
     |                   =====================                   |
     |                        A N C O P T                        |
     |                   =====================                   |
     |               Approximate Normal Coordinate               |
     |                Rational Function Optimizer                |
      ----------------------------------------------------------- 
      ----------------------------------------------------------- 
     |                   =====================                   |
     |                        A N C O P T                        |
     |                   =====================                   |
     |               Approximate Normal Coordinate               |
     |                Rational Function Optimizer                |
      ----------------------------------------------------------- 

          ...................................................
          :                      SETUP                      :
          :.................................................:
          :   optimization level         verytight          :
          :   max. optcycles                   300          :
          :   ANC micro-cycles                  20          :
          :   degrees of freedom                39          :
          :.................................................:
          :   RF solver                   davidson          :
          :   write xtbopt.log                true          :
          :   linear?                        false          :
          :   energy convergence         0.1000000E-06 Eh   :
          :   grad. convergence          0.2000000E-03 Eh/α :
          :   maxmium RF displ.          1.0000000          :
          :   Hlow (freq-cutoff)         0.1000000E-01      :
          :   Hmax (freq-cutoff)         5.0000000          :
          :   S6 in model hess.         20.0000000          :
          ...................................................

generating ANC from model Hessian ...
Using Lindh-Hessian (1995)
 Shifting diagonal of input Hessian by   6.302106293467473E-003
 Lowest  eigenvalues of input Hessian
    0.000000    0.000000    0.000000    0.000000    0.000000    0.000000
    0.010000    0.011499    0.013636    0.015879    0.022023    0.022833
    0.045432    0.049483    0.059075    0.060405    0.067760    0.074192
 Highest eigenvalues
    1.222363    1.374557    1.518396    1.842997    2.049049    2.278453
 

........................................................................
.............................. CYCLE    1 ..............................
........................................................................

 iter      E             dE          RMSdq      gap      omega  full diag
   1    -22.8073955 -0.228074E+02  0.113E-05    2.35       0.0  T
   2    -22.8073955 -0.667910E-12  0.623E-06    2.35    4141.5  T
   3    -22.8073955 -0.213163E-12  0.315E-06    2.35    8197.4  T
     SCC iter.                  ...        0 min,  0.110 sec
     gradient                   ...        0 min,  0.002 sec
 * total energy  :   -22.5237965 Eh     change       -0.3600675E-10 Eh
   gradient norm :     0.0767025 Eh/α   predicted     0.0000000E+00 (-100.00%)
   displ. norm   :     0.2926423 α      lambda       -0.6931145E-02
   maximum displ.:     0.2475159 α      in ANC's #3, #10, #1, ...

........................................................................
.............................. CYCLE    2 ..............................
........................................................................

 iter      E             dE          RMSdq      gap      omega  full diag
   1    -22.8073699 -0.228074E+02  0.225E-01    2.43       0.0  T
   2    -22.8074143 -0.444747E-04  0.139E-01    2.44       1.0  T
   3    -22.8074038  0.105048E-04  0.596E-02    2.46       1.0  T
   4    -22.8074267 -0.228969E-04  0.110E-02    2.46       2.4  T
   5    -22.8074273 -0.617295E-06  0.454E-03    2.46       5.7  T
   6    -22.8074274 -0.757311E-07  0.218E-03    2.46      11.8  T
   7    -22.8074274 -0.923459E-08  0.673E-04    2.46      38.4  T
   8    -22.8074274 -0.222588E-08  0.292E-04    2.46      88.6  T
     SCC iter.                  ...        0 min,  0.101 sec
     gradient                   ...        0 min,  0.001 sec
 * total energy  :   -22.5286249 Eh     change       -0.4828408E-02 Eh
   gradient norm :     0.0365336 Eh/α   predicted    -0.3762353E-02 ( -22.08%)
   displ. norm   :     0.2138206 α      lambda       -0.2357997E-02
   maximum displ.:     0.1791766 α      in ANC's #3, #10, #1, ...

........................................................................
.............................. CYCLE    3 ..............................
........................................................................

 iter      E             dE          RMSdq      gap      omega  full diag
   1    -22.8082936 -0.228083E+02  0.186E-01    2.56       0.0  T
   2    -22.8083699 -0.762899E-04  0.116E-01    2.55       1.0  T
   3    -22.8083916 -0.217062E-04  0.610E-02    2.57       1.0  T
   4    -22.8083986 -0.706386E-05  0.120E-02    2.56       2.1  T
   5    -22.8083998 -0.118615E-05  0.367E-03    2.56       7.0  T
   6    -22.8083998 -0.101434E-07  0.154E-03    2.56      16.8  T
   7    -22.8083998 -0.678292E-08  0.536E-04    2.56      48.2  T
   8    -22.8083998 -0.129132E-08  0.197E-04    2.56     131.0  T
     SCC iter.                  ...        0 min,  0.261 sec
     gradient                   ...        0 min,  0.006 sec
 * total energy  :   -22.5299755 Eh     change       -0.1350592E-02 Eh
   gradient norm :     0.0093112 Eh/α   predicted    -0.1232902E-02 (  -8.71%)
   displ. norm   :     0.0791900 α      lambda       -0.2250841E-03
   maximum displ.:     0.0655624 α      in ANC's #3, #1, #9, ...

........................................................................
.............................. CYCLE    4 ..............................
........................................................................

 iter      E             dE          RMSdq      gap      omega  full diag
   1    -22.8094105 -0.228094E+02  0.595E-02    2.60       0.0  T
   2    -22.8094179 -0.735608E-05  0.330E-02    2.59       1.0  T
   3    -22.8094197 -0.184379E-05  0.196E-02    2.60       1.3  T
   4    -22.8094206 -0.848717E-06  0.362E-03    2.59       7.1  T
   5    -22.8094207 -0.118253E-06  0.122E-03    2.60      21.1  T
   6    -22.8094207 -0.781842E-09  0.254E-04    2.59     101.5  T
   7    -22.8094207 -0.347335E-09  0.108E-04    2.60     239.9  T
     SCC iter.                  ...        0 min,  0.137 sec
     gradient                   ...        0 min,  0.009 sec
 * total energy  :   -22.5301307 Eh     change       -0.1551701E-03 Eh
   gradient norm :     0.0046974 Eh/α   predicted    -0.1132472E-03 ( -27.02%)
   displ. norm   :     0.0697750 α      lambda       -0.1166585E-03
   maximum displ.:     0.0416333 α      in ANC's #3, #1, #9, ...

........................................................................
.............................. CYCLE    5 ..............................
........................................................................

 iter      E             dE          RMSdq      gap      omega  full diag
   1    -22.8101937 -0.228102E+02  0.499E-02    2.62       0.0  T
   2    -22.8101982 -0.452273E-05  0.271E-02    2.61       1.0  T
   3    -22.8101992 -0.983784E-06  0.167E-02    2.61       1.6  T
   4    -22.8101999 -0.722047E-06  0.305E-03    2.61       8.5  T
   5    -22.8102000 -0.689161E-07  0.124E-03    2.61      20.8  T
   6    -22.8102000 -0.128878E-08  0.272E-04    2.61      95.1  T
   7    -22.8102000 -0.881428E-10  0.109E-04    2.61     237.3  T
     SCC iter.                  ...        0 min,  0.187 sec
     gradient                   ...        0 min,  0.003 sec
 * total energy  :   -22.5302086 Eh     change       -0.7790866E-04 Eh
   gradient norm :     0.0036230 Eh/α   predicted    -0.5861244E-04 ( -24.77%)
   displ. norm   :     0.0651334 α      lambda       -0.5745002E-04
   maximum displ.:     0.0434205 α      in ANC's #2, #1, #9, ...

........................................................................
.............................. CYCLE    6 ..............................
........................................................................

 iter      E             dE          RMSdq      gap      omega  full diag
   1    -22.8104293 -0.228104E+02  0.404E-02    2.62       0.0  T
   2    -22.8104313 -0.201409E-05  0.227E-02    2.62       1.1  T
   3    -22.8104315 -0.163781E-06  0.133E-02    2.62       1.9  T
   4    -22.8104322 -0.647064E-06  0.226E-03    2.62      11.4  T
   5    -22.8104322 -0.276712E-07  0.104E-03    2.62      24.8  T
   6    -22.8104322 -0.135373E-08  0.218E-04    2.62     118.4  T
   7    -22.8104322 -0.554650E-10  0.783E-05    2.62     329.9  T
     SCC iter.                  ...        0 min,  0.112 sec
     gradient                   ...        0 min,  0.001 sec
 * total energy  :   -22.5302505 Eh     change       -0.4187747E-04 Eh
   gradient norm :     0.0031558 Eh/α   predicted    -0.2884908E-04 ( -31.11%)
   displ. norm   :     0.0937705 α      lambda       -0.5304713E-04
   maximum displ.:     0.0757157 α      in ANC's #2, #1, #9, ...

........................................................................
.............................. CYCLE    7 ..............................
........................................................................

 iter      E             dE          RMSdq      gap      omega  full diag
   1    -22.8104393 -0.228104E+02  0.490E-02    2.62       0.0  T
   2    -22.8104409 -0.162192E-05  0.283E-02    2.62       1.0  T
   3    -22.8104404  0.494642E-06  0.144E-02    2.62       1.8  T
   4    -22.8104416 -0.120128E-05  0.234E-03    2.62      11.1  T
   5    -22.8104416 -0.164580E-07  0.112E-03    2.62      23.1  T
   6    -22.8104416 -0.220602E-08  0.222E-04    2.62     116.3  T
   7    -22.8104416 -0.709868E-10  0.909E-05    2.62     283.9  T
     SCC iter.                  ...        0 min,  0.146 sec
     gradient                   ...        0 min,  0.014 sec
 * total energy  :   -22.5302886 Eh     change       -0.3811912E-04 Eh
   gradient norm :     0.0027962 Eh/α   predicted    -0.2675906E-04 ( -29.80%)
   displ. norm   :     0.0861260 α      lambda       -0.3570015E-04
   maximum displ.:     0.0744827 α      in ANC's #2, #1, #9, ...

........................................................................
.............................. CYCLE    8 ..............................
........................................................................

 iter      E             dE          RMSdq      gap      omega  full diag
   1    -22.8104177 -0.228104E+02  0.391E-02    2.62       0.0  T
   2    -22.8104183 -0.551684E-06  0.229E-02    2.62       1.1  T
   3    -22.8104178  0.433365E-06  0.904E-03    2.62       2.9  T
   4    -22.8104185 -0.677996E-06  0.159E-03    2.62      16.3  T
   5    -22.8104185 -0.352709E-08  0.657E-04    2.62      39.3  T
   6    -22.8104185 -0.601847E-09  0.132E-04    2.62     195.1  T
     SCC iter.                  ...        0 min,  0.106 sec
     gradient                   ...        0 min,  0.001 sec
 * total energy  :   -22.5303173 Eh     change       -0.2869410E-04 Eh
   gradient norm :     0.0025845 Eh/α   predicted    -0.1798078E-04 ( -37.34%)
   displ. norm   :     0.0851101 α      lambda       -0.3406165E-04
   maximum displ.:     0.0738978 α      in ANC's #2, #4, #1, ...

........................................................................
.............................. CYCLE    9 ..............................
........................................................................

 iter      E             dE          RMSdq      gap      omega  full diag
   1    -22.8105283 -0.228105E+02  0.328E-02    2.62       0.0  T
   2    -22.8105286 -0.273193E-06  0.193E-02    2.62       1.3  T
   3    -22.8105284  0.236910E-06  0.613E-03    2.62       4.2  T
   4    -22.8105287 -0.353121E-06  0.124E-03    2.62      20.9  T
   5    -22.8105287 -0.133130E-08  0.464E-04    2.62      55.7  T
   6    -22.8105287 -0.172317E-09  0.115E-04    2.62     224.4  T
     SCC iter.                  ...        0 min,  0.108 sec
     gradient                   ...        0 min,  0.001 sec
 * total energy  :   -22.5303455 Eh     change       -0.2825249E-04 Eh
   gradient norm :     0.0021401 Eh/α   predicted    -0.1715626E-04 ( -39.28%)
   displ. norm   :     0.1049761 α      lambda       -0.3645855E-04
   maximum displ.:     0.0903149 α      in ANC's #2, #4, #7, ...

........................................................................
.............................. CYCLE   10 ..............................
........................................................................

 iter      E             dE          RMSdq      gap      omega  full diag
   1    -22.8105539 -0.228106E+02  0.351E-02    2.62       0.0  T
   2    -22.8105542 -0.266754E-06  0.207E-02    2.62       1.2  T
   3    -22.8105540  0.154184E-06  0.527E-03    2.62       4.9  T
   4    -22.8105543 -0.247712E-06  0.126E-03    2.62      20.5  T
   5    -22.8105543 -0.176765E-08  0.552E-04    2.62      46.8  T
   6    -22.8105543 -0.293404E-09  0.156E-04    2.62     165.2  T
     SCC iter.                  ...        0 min,  0.099 sec
     gradient                   ...        0 min,  0.001 sec
 * total energy  :   -22.5303760 Eh     change       -0.3051896E-04 Eh
   gradient norm :     0.0023235 Eh/α   predicted    -0.1843206E-04 ( -39.60%)
   displ. norm   :     0.1305574 α      lambda       -0.4163889E-04
   maximum displ.:     0.1100954 α      in ANC's #2, #4, #7, ...

........................................................................
.............................. CYCLE   11 ..............................
........................................................................

 iter      E             dE          RMSdq      gap      omega  full diag
   1    -22.8105237 -0.228105E+02  0.393E-02    2.62       0.0  T
   2    -22.8105240 -0.296124E-06  0.232E-02    2.62       1.1  T
   3    -22.8105238  0.140838E-06  0.521E-03    2.62       5.0  T
   4    -22.8105241 -0.231422E-06  0.129E-03    2.62      20.1  T
   5    -22.8105241 -0.259526E-08  0.622E-04    2.62      41.5  T
   6    -22.8105241 -0.380382E-09  0.186E-04    2.62     138.7  T
     SCC iter.                  ...        0 min,  0.100 sec
     gradient                   ...        0 min,  0.001 sec
 * total energy  :   -22.5304125 Eh     change       -0.3646425E-04 Eh
   gradient norm :     0.0030645 Eh/α   predicted    -0.2117347E-04 ( -41.93%)
   displ. norm   :     0.2326609 α      lambda       -0.7462749E-04
   maximum displ.:     0.1931454 α      in ANC's #2, #4, #7, ...

........................................................................
.............................. CYCLE   12 ..............................
........................................................................

 iter      E             dE          RMSdq      gap      omega  full diag
   1    -22.8098183 -0.228098E+02  0.668E-02    2.62       0.0  T
   2    -22.8098193 -0.102511E-05  0.395E-02    2.62       1.0  T
   3    -22.8098191  0.201467E-06  0.744E-03    2.62       3.5  T
   4    -22.8098195 -0.402163E-06  0.217E-03    2.62      11.9  T
   5    -22.8098196 -0.155363E-07  0.107E-03    2.62      24.2  T
   6    -22.8098196 -0.445223E-09  0.318E-04    2.62      81.2  T
   7    -22.8098196 -0.102531E-08  0.889E-05    2.62     290.3  T
     SCC iter.                  ...        0 min,  0.106 sec
     gradient                   ...        0 min,  0.001 sec
 * total energy  :   -22.5304695 Eh     change       -0.5695366E-04 Eh
   gradient norm :     0.0051159 Eh/α   predicted    -0.3932915E-04 ( -30.95%)
   displ. norm   :     0.2508913 α      lambda       -0.8909339E-04
   maximum displ.:     0.2038631 α      in ANC's #2, #4, #5, ...

........................................................................
.............................. CYCLE   13 ..............................
........................................................................

 iter      E             dE          RMSdq      gap      omega  full diag
   1    -22.8092022 -0.228092E+02  0.677E-02    2.63       0.0  T
   2    -22.8092032 -0.977477E-06  0.402E-02    2.62       1.0  T
   3    -22.8092030  0.174179E-06  0.675E-03    2.62       3.8  T
   4    -22.8092034 -0.338333E-06  0.193E-03    2.62      13.4  T
   5    -22.8092034 -0.137154E-07  0.937E-04    2.62      27.6  T
   6    -22.8092034 -0.369514E-09  0.279E-04    2.62      92.5  T
     SCC iter.                  ...        0 min,  0.097 sec
     gradient                   ...        0 min,  0.003 sec
 * total energy  :   -22.5305245 Eh     change       -0.5507405E-04 Eh
   gradient norm :     0.0070600 Eh/α   predicted    -0.4735027E-04 ( -14.02%)
   displ. norm   :     0.1346363 α      lambda       -0.1404288E-03
   maximum displ.:     0.0911643 α      in ANC's #2, #4, #5, ...

........................................................................
.............................. CYCLE   14 ..............................
........................................................................

 iter      E             dE          RMSdq      gap      omega  full diag
   1    -22.8115396 -0.228115E+02  0.456E-02    2.63       0.0  T
   2    -22.8115405 -0.814803E-06  0.267E-02    2.63       1.0  T
   3    -22.8115404  0.270050E-07  0.560E-03    2.63       4.6  T
   4    -22.8115406 -0.151673E-06  0.169E-03    2.63      15.3  T
   5    -22.8115406 -0.815646E-08  0.824E-04    2.63      31.3  T
   6    -22.8115406 -0.133240E-08  0.238E-04    2.63     108.5  T
     SCC iter.                  ...        0 min,  0.103 sec
     gradient                   ...        0 min,  0.001 sec
 * total energy  :   -22.5306148 Eh     change       -0.9030475E-04 Eh
   gradient norm :     0.0046869 Eh/α   predicted    -0.7148806E-04 ( -20.84%)
   displ. norm   :     0.3545079 α      lambda       -0.1644705E-03
   maximum displ.:     0.2593469 α      in ANC's #2, #4, #5, ...

........................................................................
.............................. CYCLE   15 ..............................
........................................................................

 iter      E             dE          RMSdq      gap      omega  full diag
   1    -22.8086929 -0.228087E+02  0.989E-02    2.64       0.0  T
   2    -22.8086969 -0.392837E-05  0.583E-02    2.64       1.0  T
   3    -22.8086969 -0.670701E-07  0.919E-03    2.64       2.8  T
   4    -22.8086972 -0.242434E-06  0.266E-03    2.64       9.7  T
   5    -22.8086972 -0.264724E-07  0.133E-03    2.64      19.5  T
   6    -22.8086972 -0.342463E-08  0.384E-04    2.64      67.2  T
   7    -22.8086972 -0.499004E-09  0.145E-04    2.64     177.6  T
     SCC iter.                  ...        0 min,  0.098 sec
     gradient                   ...        0 min,  0.001 sec
 * total energy  :   -22.5306933 Eh     change       -0.7850412E-04 Eh
   gradient norm :     0.0081820 Eh/α   predicted    -0.9257225E-04 (  17.92%)
   displ. norm   :     0.0702467 α      lambda       -0.1706303E-03
   maximum displ.:     0.0427016 α      in ANC's #3, #2, #1, ...

........................................................................
.............................. CYCLE   16 ..............................
........................................................................

 iter      E             dE          RMSdq      gap      omega  full diag
   1    -22.8114192 -0.228114E+02  0.444E-02    2.64       0.0  T
   2    -22.8114207 -0.154346E-05  0.253E-02    2.64       1.0  T
   3    -22.8114207 -0.201708E-07  0.704E-03    2.64       3.7  T
   4    -22.8114209 -0.150913E-06  0.239E-03    2.64      10.8  T
   5    -22.8114209 -0.248504E-07  0.115E-03    2.64      22.5  T
   6    -22.8114209 -0.100224E-08  0.363E-04    2.64      71.2  T
   7    -22.8114209 -0.821757E-09  0.154E-04    2.64     167.1  T
     SCC iter.                  ...        0 min,  0.109 sec
     gradient                   ...        0 min,  0.002 sec
 * total energy  :   -22.5307762 Eh     change       -0.8288139E-04 Eh
   gradient norm :     0.0042825 Eh/α   predicted    -0.8573547E-04 (   3.44%)
   displ. norm   :     0.1931578 α      lambda       -0.9989489E-04
   maximum displ.:     0.1248569 α      in ANC's #2, #4, #1, ...

........................................................................
.............................. CYCLE   17 ..............................
........................................................................

 iter      E             dE          RMSdq      gap      omega  full diag
   1    -22.8106678 -0.228107E+02  0.616E-02    2.65       0.0  T
   2    -22.8106686 -0.756766E-06  0.365E-02    2.64       1.0  T
   3    -22.8106686 -0.599198E-07  0.372E-03    2.64       6.9  T
   4    -22.8106687 -0.535839E-07  0.144E-03    2.64      17.9  T
   5    -22.8106687 -0.355215E-08  0.773E-04    2.64      33.4  T
   6    -22.8106687 -0.134444E-08  0.195E-04    2.64     132.4  T
     SCC iter.                  ...        0 min,  0.100 sec
     gradient                   ...        0 min,  0.001 sec
 * total energy  :   -22.5308405 Eh     change       -0.6426634E-04 Eh
   gradient norm :     0.0046835 Eh/α   predicted    -0.5180894E-04 ( -19.38%)
   displ. norm   :     0.2443179 α      lambda       -0.9718299E-04
   maximum displ.:     0.1450490 α      in ANC's #2, #4, #7, ...

........................................................................
.............................. CYCLE   18 ..............................
........................................................................

 iter      E             dE          RMSdq      gap      omega  full diag
   1    -22.8089704 -0.228090E+02  0.815E-02    2.64       0.0  T
   2    -22.8089725 -0.208590E-05  0.481E-02    2.64       1.0  T
   3    -22.8089726 -0.134771E-06  0.596E-03    2.64       4.3  T
   4    -22.8089727 -0.510992E-07  0.171E-03    2.64      15.1  T
   5    -22.8089727  0.582954E-09  0.823E-04    2.64      31.4  T
   6    -22.8089727 -0.406112E-08  0.259E-04    2.64      99.5  T
     SCC iter.                  ...        0 min,  0.097 sec
     gradient                   ...        0 min,  0.001 sec
 * total energy  :   -22.5308810 Eh     change       -0.4055460E-04 Eh
   gradient norm :     0.0081818 Eh/α   predicted    -0.5149113E-04 (  26.97%)
   displ. norm   :     0.0912116 α      lambda       -0.1501331E-03
   maximum displ.:     0.0708597 α      in ANC's #1, #7, #4, ...

........................................................................
.............................. CYCLE   19 ..............................
........................................................................

 iter      E             dE          RMSdq      gap      omega  full diag
   1    -22.8115548 -0.228116E+02  0.629E-02    2.63       0.0  T
   2    -22.8115559 -0.112513E-05  0.369E-02    2.63       1.0  T
   3    -22.8115558  0.856032E-07  0.561E-03    2.63       4.6  T
   4    -22.8115560 -0.222508E-06  0.231E-03    2.63      11.2  T
   5    -22.8115560 -0.314420E-07  0.979E-04    2.63      26.4  T
   6    -22.8115560 -0.976545E-09  0.361E-04    2.63      71.4  T
     SCC iter.                  ...        0 min,  0.102 sec
     gradient                   ...        0 min,  0.004 sec
 * total energy  :   -22.5309726 Eh     change       -0.9158240E-04 Eh
   gradient norm :     0.0057915 Eh/α   predicted    -0.7568899E-04 ( -17.35%)
   displ. norm   :     0.2346438 α      lambda       -0.1505279E-03
   maximum displ.:     0.1152861 α      in ANC's #1, #4, #2, ...

........................................................................
.............................. CYCLE   20 ..............................
........................................................................

 iter      E             dE          RMSdq      gap      omega  full diag
   1    -22.8108097 -0.228108E+02  0.116E-01    2.62       0.0  T
   2    -22.8108108 -0.109822E-05  0.685E-02    2.63       1.0  T
   3    -22.8108110 -0.198781E-06  0.587E-03    2.62       4.4  T
   4    -22.8108112 -0.201788E-06  0.280E-03    2.63       9.2  T
   5    -22.8108112 -0.153844E-07  0.135E-03    2.63      19.2  T
   6    -22.8108112 -0.579546E-08  0.454E-04    2.63      56.9  T
   7    -22.8108112 -0.553925E-09  0.210E-04    2.63     122.9  T
     SCC iter.                  ...        0 min,  0.099 sec
     gradient                   ...        0 min,  0.001 sec
 * total energy  :   -22.5310927 Eh     change       -0.1200481E-03 Eh
   gradient norm :     0.0067197 Eh/α   predicted    -0.7941094E-04 ( -33.85%)
   displ. norm   :     0.3952383 α      lambda       -0.2278758E-03
   maximum displ.:     0.2249671 α      in ANC's #1, #4, #2, ...
 * RMSD in coord.:     0.6500226 α      energy gain  -0.7296175E-02 Eh

generating ANC from model Hessian ...
Using Lindh-Hessian (1995)
 Shifting diagonal of input Hessian by   6.653887652061773E-003
 Lowest  eigenvalues of input Hessian
    0.000000    0.000000    0.000000    0.000000    0.000000    0.000000
    0.010000    0.011670    0.013757    0.015714    0.021997    0.023378
    0.042953    0.050335    0.055109    0.060731    0.064148    0.070587
 Highest eigenvalues
    1.190356    1.324392    1.558147    1.815122    2.106294    2.281768
 

........................................................................
.............................. CYCLE   21 ..............................
........................................................................

 iter      E             dE          RMSdq      gap      omega  full diag
   1    -22.8080780 -0.228081E+02  0.203E-01    2.61       0.0  T
   2    -22.8080854 -0.740085E-05  0.120E-01    2.62       1.0  T
   3    -22.8080796  0.579085E-05  0.303E-02    2.62       1.0  T
   4    -22.8080879 -0.821534E-05  0.599E-03    2.62       4.3  T
   5    -22.8080880 -0.125846E-06  0.320E-03    2.62       8.1  T
   6    -22.8080880 -0.158870E-07  0.900E-04    2.62      28.7  T
   7    -22.8080880 -0.196713E-08  0.422E-04    2.62      61.1  T
     SCC iter.                  ...        0 min,  0.104 sec
     gradient                   ...        0 min,  0.001 sec
 * total energy  :   -22.5312003 Eh     change       -0.1075804E-03 Eh
   gradient norm :     0.0126875 Eh/α   predicted     0.0000000E+00 (-100.00%)
   displ. norm   :     0.0647579 α      lambda       -0.2494439E-03
   maximum displ.:     0.0365637 α      in ANC's #1, #2, #3, ...

........................................................................
.............................. CYCLE   22 ..............................
........................................................................

 iter      E             dE          RMSdq      gap      omega  full diag
   1    -22.8119432 -0.228119E+02  0.466E-02    2.66       0.0  T
   2    -22.8119467 -0.356730E-05  0.264E-02    2.65       1.0  T
   3    -22.8119466  0.125512E-06  0.135E-02    2.65       1.9  T
   4    -22.8119472 -0.617356E-06  0.313E-03    2.65       8.3  T
   5    -22.8119473 -0.619350E-07  0.109E-03    2.65      23.8  T
   6    -22.8119473 -0.240493E-08  0.570E-04    2.65      45.3  T
   7    -22.8119473 -0.409198E-09  0.176E-04    2.65     146.6  T
     SCC iter.                  ...        0 min,  0.097 sec
     gradient                   ...        0 min,  0.001 sec
 * total energy  :   -22.5313586 Eh     change       -0.1583304E-03 Eh
   gradient norm :     0.0031906 Eh/α   predicted    -0.1252463E-03 ( -20.90%)
   displ. norm   :     0.0675407 α      lambda       -0.5762109E-04
   maximum displ.:     0.0473921 α      in ANC's #1, #2, #3, ...

........................................................................
.............................. CYCLE   23 ..............................
........................................................................

 iter      E             dE          RMSdq      gap      omega  full diag
   1    -22.8131979 -0.228132E+02  0.336E-02    2.66       0.0  T
   2    -22.8131984 -0.537653E-06  0.194E-02    2.66       1.3  T
   3    -22.8131982  0.153757E-06  0.613E-03    2.66       4.2  T
   4    -22.8131985 -0.245454E-06  0.136E-03    2.66      19.0  T
   5    -22.8131985 -0.101767E-07  0.576E-04    2.66      44.8  T
   6    -22.8131985 -0.797524E-09  0.258E-04    2.66      99.9  T
     SCC iter.                  ...        0 min,  0.097 sec
     gradient                   ...        0 min,  0.001 sec
 * total energy  :   -22.5313994 Eh     change       -0.4078837E-04 Eh
   gradient norm :     0.0017688 Eh/α   predicted    -0.2894328E-04 ( -29.04%)
   displ. norm   :     0.1285483 α      lambda       -0.4597281E-04
   maximum displ.:     0.0924801 α      in ANC's #1, #2, #6, ...

........................................................................
.............................. CYCLE   24 ..............................
........................................................................

 iter      E             dE          RMSdq      gap      omega  full diag
   1    -22.8136863 -0.228137E+02  0.666E-02    2.67       0.0  T
   2    -22.8136868 -0.509881E-06  0.389E-02    2.67       1.0  T
   3    -22.8136868 -0.379609E-08  0.451E-03    2.67       5.7  T
   4    -22.8136870 -0.148544E-06  0.180E-03    2.67      14.3  T
   5    -22.8136870 -0.991954E-08  0.689E-04    2.67      37.5  T
   6    -22.8136870 -0.141241E-08  0.250E-04    2.67     103.2  T
     SCC iter.                  ...        0 min,  0.102 sec
     gradient                   ...        0 min,  0.001 sec
 * total energy  :   -22.5314506 Eh     change       -0.5127732E-04 Eh
   gradient norm :     0.0032760 Eh/α   predicted    -0.2315398E-04 ( -54.85%)
   displ. norm   :     0.1382037 α      lambda       -0.6631131E-04
   maximum displ.:     0.1042701 α      in ANC's #1, #2, #6, ...

........................................................................
.............................. CYCLE   25 ..............................
........................................................................

 iter      E             dE          RMSdq      gap      omega  full diag
   1    -22.8132149 -0.228132E+02  0.769E-02    2.67       0.0  T
   2    -22.8132155 -0.590353E-06  0.450E-02    2.67       1.0  T
   3    -22.8132157 -0.142385E-06  0.378E-03    2.67       6.8  T
   4    -22.8132157 -0.670160E-07  0.188E-03    2.67      13.7  T
   5    -22.8132157 -0.536116E-08  0.858E-04    2.67      30.1  T
   6    -22.8132157 -0.298096E-08  0.286E-04    2.67      90.3  T
     SCC iter.                  ...        0 min,  0.100 sec
     gradient                   ...        0 min,  0.001 sec
 * total energy  :   -22.5315104 Eh     change       -0.5976926E-04 Eh
   gradient norm :     0.0030672 Eh/α   predicted    -0.3378976E-04 ( -43.47%)
   displ. norm   :     0.2549135 α      lambda       -0.1220929E-03
   maximum displ.:     0.1938047 α      in ANC's #1, #2, #7, ...

........................................................................
.............................. CYCLE   26 ..............................
........................................................................

 iter      E             dE          RMSdq      gap      omega  full diag
   1    -22.8114901 -0.228115E+02  0.152E-01    2.67       0.0  T
   2    -22.8114932 -0.312739E-05  0.893E-02    2.68       1.0  T
   3    -22.8114931  0.693599E-07  0.114E-02    2.67       2.3  T
   4    -22.8114941 -0.945166E-06  0.394E-03    2.68       6.6  T
   5    -22.8114941 -0.314745E-07  0.211E-03    2.68      12.2  T
   6    -22.8114941 -0.142438E-07  0.593E-04    2.68      43.5  T
   7    -22.8114941 -0.970925E-09  0.308E-04    2.68      83.9  T
     SCC iter.                  ...        0 min,  0.105 sec
     gradient                   ...        0 min,  0.002 sec
 * total energy  :   -22.5316020 Eh     change       -0.9159628E-04 Eh
   gradient norm :     0.0051244 Eh/α   predicted    -0.6501216E-04 ( -29.02%)
   displ. norm   :     0.1748479 α      lambda       -0.7192571E-04
   maximum displ.:     0.1389045 α      in ANC's #1, #2, #7, ...

........................................................................
.............................. CYCLE   27 ..............................
........................................................................

 iter      E             dE          RMSdq      gap      omega  full diag
   1    -22.8107983 -0.228108E+02  0.108E-01    2.68       0.0  T
   2    -22.8107996 -0.130908E-05  0.635E-02    2.68       1.0  T
   3    -22.8107997 -0.122383E-07  0.746E-03    2.68       3.5  T
   4    -22.8108001 -0.416927E-06  0.264E-03    2.68       9.8  T
   5    -22.8108001 -0.636514E-08  0.136E-03    2.68      19.0  T
   6    -22.8108001 -0.830746E-08  0.392E-04    2.68      65.8  T
   7    -22.8108001 -0.270781E-09  0.212E-04    2.68     121.9  T
     SCC iter.                  ...        0 min,  0.107 sec
     gradient                   ...        0 min,  0.002 sec
 * total energy  :   -22.5316567 Eh     change       -0.5467143E-04 Eh
   gradient norm :     0.0068710 Eh/α   predicted    -0.3706055E-04 ( -32.21%)
   displ. norm   :     0.1596197 α      lambda       -0.9945183E-04
   maximum displ.:     0.1354021 α      in ANC's #1, #2, #7, ...

........................................................................
.............................. CYCLE   28 ..............................
........................................................................

 iter      E             dE          RMSdq      gap      omega  full diag
   1    -22.8115136 -0.228115E+02  0.105E-01    2.69       0.0  T
   2    -22.8115147 -0.109378E-05  0.617E-02    2.69       1.0  T
   3    -22.8115145  0.204621E-06  0.753E-03    2.69       3.4  T
   4    -22.8115151 -0.606275E-06  0.253E-03    2.69      10.2  T
   5    -22.8115151 -0.662251E-08  0.109E-03    2.69      23.7  T
   6    -22.8115151 -0.438597E-08  0.393E-04    2.69      65.6  T
   7    -22.8115151 -0.272841E-09  0.208E-04    2.69     124.2  T
     SCC iter.                  ...        0 min,  0.102 sec
     gradient                   ...        0 min,  0.004 sec
 * total energy  :   -22.5317357 Eh     change       -0.7904138E-04 Eh
   gradient norm :     0.0060613 Eh/α   predicted    -0.5099539E-04 ( -35.48%)
   displ. norm   :     0.2143268 α      lambda       -0.1289701E-03
   maximum displ.:     0.1887490 α      in ANC's #1, #7, #2, ...

........................................................................
.............................. CYCLE   29 ..............................
........................................................................

 iter      E             dE          RMSdq      gap      omega  full diag
   1    -22.8124023 -0.228124E+02  0.139E-01    2.71       0.0  T
   2    -22.8124040 -0.170064E-05  0.820E-02    2.70       1.0  T
   3    -22.8124036  0.386018E-06  0.963E-03    2.71       2.7  T
   4    -22.8124046 -0.100817E-05  0.318E-03    2.70       8.1  T
   5    -22.8124046 -0.115836E-07  0.141E-03    2.71      18.3  T
   6    -22.8124046 -0.585978E-08  0.508E-04    2.70      50.9  T
   7    -22.8124046 -0.599190E-09  0.268E-04    2.71      96.5  T
     SCC iter.                  ...        0 min,  0.098 sec
     gradient                   ...        0 min,  0.001 sec
 * total energy  :   -22.5318282 Eh     change       -0.9245051E-04 Eh
   gradient norm :     0.0053771 Eh/α   predicted    -0.6744787E-04 ( -27.04%)
   displ. norm   :     0.1830092 α      lambda       -0.8888515E-04
   maximum displ.:     0.1629488 α      in ANC's #1, #7, #2, ...

........................................................................
.............................. CYCLE   30 ..............................
........................................................................

 iter      E             dE          RMSdq      gap      omega  full diag
   1    -22.8130423 -0.228130E+02  0.111E-01    2.73       0.0  T
   2    -22.8130434 -0.108785E-05  0.653E-02    2.72       1.0  T
   3    -22.8130432  0.206206E-06  0.773E-03    2.72       3.3  T
   4    -22.8130437 -0.574102E-06  0.244E-03    2.72      10.6  T
   5    -22.8130437 -0.742571E-08  0.102E-03    2.72      25.3  T
   6    -22.8130438 -0.140067E-08  0.377E-04    2.72      68.5  T
   7    -22.8130438 -0.306837E-09  0.162E-04    2.72     159.5  T
     SCC iter.                  ...        0 min,  0.098 sec
     gradient                   ...        0 min,  0.001 sec
 * total energy  :   -22.5318956 Eh     change       -0.6743734E-04 Eh
   gradient norm :     0.0043138 Eh/α   predicted    -0.4593074E-04 ( -31.89%)
   displ. norm   :     0.2852140 α      lambda       -0.9967727E-04
   maximum displ.:     0.2541479 α      in ANC's #1, #7, #2, ...

........................................................................
.............................. CYCLE   31 ..............................
........................................................................

 iter      E             dE          RMSdq      gap      omega  full diag
   1    -22.8117685 -0.228118E+02  0.176E-01    2.73       0.0  T
   2    -22.8117713 -0.278410E-05  0.104E-01    2.73       1.0  T
   3    -22.8117707  0.573021E-06  0.132E-02    2.73       2.0  T
   4    -22.8117721 -0.143550E-05  0.379E-03    2.73       6.8  T
   5    -22.8117722 -0.267881E-07  0.216E-03    2.73      11.9  T
   6    -22.8117722 -0.144520E-07  0.572E-04    2.73      45.1  T
   7    -22.8117722 -0.634945E-09  0.299E-04    2.73      86.3  T
     SCC iter.                  ...        0 min,  0.109 sec
     gradient                   ...        0 min,  0.002 sec
 * total energy  :   -22.5319538 Eh     change       -0.5818226E-04 Eh
   gradient norm :     0.0078069 Eh/α   predicted    -0.5389042E-04 (  -7.38%)
   displ. norm   :     0.2359137 α      lambda       -0.1815888E-03
   maximum displ.:     0.1906719 α      in ANC's #1, #6, #4, ...

........................................................................
.............................. CYCLE   32 ..............................
........................................................................

 iter      E             dE          RMSdq      gap      omega  full diag
   1    -22.8148021 -0.228148E+02  0.119E-01    2.79       0.0  T
   2    -22.8148070 -0.484996E-05  0.701E-02    2.78       1.0  T
   3    -22.8148060  0.978117E-06  0.138E-02    2.78       1.9  T
   4    -22.8148076 -0.160134E-05  0.319E-03    2.77       8.1  T
   5    -22.8148076 -0.468727E-07  0.155E-03    2.77      16.7  T
   6    -22.8148076 -0.563408E-08  0.743E-04    2.77      34.8  T
   7    -22.8148076 -0.876398E-09  0.302E-04    2.77      85.4  T
     SCC iter.                  ...        0 min,  0.103 sec
     gradient                   ...        0 min,  0.001 sec
 * total energy  :   -22.5320168 Eh     change       -0.6304151E-04 Eh
   gradient norm :     0.0074343 Eh/α   predicted    -0.9584877E-04 (  52.04%)
   displ. norm   :     0.2149960 α      lambda       -0.9973694E-04
   maximum displ.:     0.1914108 α      in ANC's #1, #2, #7, ...

........................................................................
.............................. CYCLE   33 ..............................
........................................................................

 iter      E             dE          RMSdq      gap      omega  full diag
   1    -22.8121024 -0.228121E+02  0.129E-01    2.77       0.0  T
   2    -22.8121053 -0.288574E-05  0.761E-02    2.78       1.0  T
   3    -22.8121043  0.101065E-05  0.142E-02    2.77       1.8  T
   4    -22.8121060 -0.166460E-05  0.331E-03    2.78       7.8  T
   5    -22.8121060 -0.425298E-07  0.185E-03    2.78      14.0  T
   6    -22.8121060 -0.669971E-08  0.513E-04    2.78      50.3  T
   7    -22.8121060 -0.631744E-09  0.243E-04    2.78     106.4  T
     SCC iter.                  ...        0 min,  0.106 sec
     gradient                   ...        0 min,  0.002 sec
 * total energy  :   -22.5320725 Eh     change       -0.5566574E-04 Eh
   gradient norm :     0.0051802 Eh/α   predicted    -0.5217355E-04 (  -6.27%)
   displ. norm   :     0.0529102 α      lambda       -0.1021830E-03
   maximum displ.:     0.0244227 α      in ANC's #6, #4, #5, ...

........................................................................
.............................. CYCLE   34 ..............................
........................................................................

 iter      E             dE          RMSdq      gap      omega  full diag
   1    -22.8135539 -0.228136E+02  0.330E-02    2.77       0.0  T
   2    -22.8135551 -0.118346E-05  0.186E-02    2.77       1.4  T
   3    -22.8135551 -0.390280E-07  0.596E-03    2.78       4.3  T
   4    -22.8135552 -0.982264E-07  0.205E-03    2.78      12.6  T
   5    -22.8135552 -0.201684E-07  0.900E-04    2.78      28.7  T
   6    -22.8135552 -0.174487E-08  0.266E-04    2.78      96.9  T
     SCC iter.                  ...        0 min,  0.103 sec
     gradient                   ...        0 min,  0.001 sec
 * total energy  :   -22.5321167 Eh     change       -0.4415992E-04 Eh
   gradient norm :     0.0047957 Eh/α   predicted    -0.5123228E-04 (  16.02%)
   displ. norm   :     0.1191888 α      lambda       -0.6039023E-04
   maximum displ.:     0.0937194 α      in ANC's #1, #4, #2, ...

........................................................................
.............................. CYCLE   35 ..............................
........................................................................

 iter      E             dE          RMSdq      gap      omega  full diag
   1    -22.8134837 -0.228135E+02  0.556E-02    2.80       0.0  T
   2    -22.8134846 -0.867716E-06  0.325E-02    2.79       1.0  T
   3    -22.8134840  0.589113E-06  0.951E-03    2.80       2.7  T
   4    -22.8134848 -0.818590E-06  0.167E-03    2.79      15.4  T
   5    -22.8134848 -0.834636E-08  0.771E-04    2.79      33.5  T
   6    -22.8134848 -0.115523E-08  0.315E-04    2.79      81.9  T
     SCC iter.                  ...        0 min,  0.128 sec
     gradient                   ...        0 min,  0.002 sec
 * total energy  :   -22.5321554 Eh     change       -0.3871013E-04 Eh
   gradient norm :     0.0032710 Eh/α   predicted    -0.3062274E-04 ( -20.89%)
   displ. norm   :     0.2473060 α      lambda       -0.6180018E-04
   maximum displ.:     0.2136524 α      in ANC's #1, #4, #6, ...

........................................................................
.............................. CYCLE   36 ..............................
........................................................................

 iter      E             dE          RMSdq      gap      omega  full diag
   1    -22.8125602 -0.228126E+02  0.131E-01    2.81       0.0  T
   2    -22.8125613 -0.104378E-05  0.772E-02    2.80       1.0  T
   3    -22.8125599  0.130621E-05  0.126E-02    2.81       2.0  T
   4    -22.8125618 -0.182961E-05  0.260E-03    2.80       9.9  T
   5    -22.8125618 -0.750667E-08  0.988E-04    2.81      26.1  T
   6    -22.8125618 -0.214377E-08  0.341E-04    2.81      75.8  T
     SCC iter.                  ...        0 min,  0.106 sec
     gradient                   ...        0 min,  0.001 sec
 * total energy  :   -22.5321859 Eh     change       -0.3050655E-04 Eh
   gradient norm :     0.0044735 Eh/α   predicted    -0.3278948E-04 (   7.48%)
   displ. norm   :     0.0617931 α      lambda       -0.5647494E-04
   maximum displ.:     0.0366443 α      in ANC's #4, #2, #3, ...

........................................................................
.............................. CYCLE   37 ..............................
........................................................................

 iter      E             dE          RMSdq      gap      omega  full diag
   1    -22.8143762 -0.228144E+02  0.284E-02    2.82       0.0  T
   2    -22.8143775 -0.131276E-05  0.166E-02    2.82       1.6  T
   3    -22.8143775 -0.282365E-07  0.879E-03    2.82       2.9  T
   4    -22.8143778 -0.265144E-06  0.173E-03    2.82      14.9  T
   5    -22.8143778 -0.165160E-07  0.642E-04    2.82      40.2  T
   6    -22.8143778 -0.616133E-09  0.286E-04    2.82      90.3  T
     SCC iter.                  ...        0 min,  0.112 sec
     gradient                   ...        0 min,  0.001 sec
 * total energy  :   -22.5322161 Eh     change       -0.3022155E-04 Eh
   gradient norm :     0.0045981 Eh/α   predicted    -0.2834570E-04 (  -6.21%)
   displ. norm   :     0.1306707 α      lambda       -0.4058226E-04
   maximum displ.:     0.1108585 α      in ANC's #1, #4, #3, ...

........................................................................
.............................. CYCLE   38 ..............................
........................................................................

 iter      E             dE          RMSdq      gap      omega  full diag
   1    -22.8141205 -0.228141E+02  0.663E-02    2.82       0.0  T
   2    -22.8141207 -0.258558E-06  0.390E-02    2.82       1.0  T
   3    -22.8141207  0.176130E-07  0.347E-03    2.82       7.4  T
   4    -22.8141208 -0.116982E-06  0.143E-03    2.82      18.1  T
   5    -22.8141208 -0.380765E-08  0.568E-04    2.82      45.4  T
   6    -22.8141208 -0.932811E-09  0.187E-04    2.82     137.7  T
     SCC iter.                  ...        0 min,  0.106 sec
     gradient                   ...        0 min,  0.002 sec
 * total energy  :   -22.5322473 Eh     change       -0.3124535E-04 Eh
   gradient norm :     0.0027809 Eh/α   predicted    -0.2063698E-04 ( -33.95%)
   displ. norm   :     0.1915430 α      lambda       -0.4155613E-04
   maximum displ.:     0.1553462 α      in ANC's #1, #4, #3, ...

........................................................................
.............................. CYCLE   39 ..............................
........................................................................

 iter      E             dE          RMSdq      gap      omega  full diag
   1    -22.8136763 -0.228137E+02  0.888E-02    2.83       0.0  T
   2    -22.8136767 -0.405303E-06  0.523E-02    2.83       1.0  T
   3    -22.8136766  0.124226E-06  0.535E-03    2.84       4.8  T
   4    -22.8136769 -0.308675E-06  0.184E-03    2.83      14.0  T
   5    -22.8136769 -0.441344E-08  0.591E-04    2.83      43.7  T
   6    -22.8136769 -0.904301E-09  0.229E-04    2.83     112.8  T
     SCC iter.                  ...        0 min,  0.116 sec
     gradient                   ...        0 min,  0.001 sec
 * total energy  :   -22.5322731 Eh     change       -0.2579121E-04 Eh
   gradient norm :     0.0021682 Eh/α   predicted    -0.2153957E-04 ( -16.48%)
   displ. norm   :     0.0565460 α      lambda       -0.1874637E-04
   maximum displ.:     0.0353881 α      in ANC's #3, #4, #1, ...

........................................................................
.............................. CYCLE   40 ..............................
........................................................................

 iter      E             dE          RMSdq      gap      omega  full diag
   1    -22.8146194 -0.228146E+02  0.213E-02    2.84       0.0  T
   2    -22.8146195 -0.168632E-06  0.123E-02    2.84       2.1  T
   3    -22.8146195  0.161830E-07  0.246E-03    2.84      10.5  T
   4    -22.8146196 -0.425773E-07  0.717E-04    2.84      36.0  T
   5    -22.8146196 -0.187289E-08  0.353E-04    2.84      73.1  T
     SCC iter.                  ...        0 min,  0.107 sec
     gradient                   ...        0 min,  0.001 sec
 * total energy  :   -22.5322832 Eh     change       -0.1010850E-04 Eh
   gradient norm :     0.0017259 Eh/α   predicted    -0.9403621E-05 (  -6.97%)
   displ. norm   :     0.2091123 α      lambda       -0.1539488E-04
   maximum displ.:     0.1601520 α      in ANC's #1, #4, #3, ...

........................................................................
.............................. CYCLE   41 ..............................
........................................................................

 iter      E             dE          RMSdq      gap      omega  full diag
   1    -22.8135871 -0.228136E+02  0.797E-02    2.86       0.0  T
   2    -22.8135879 -0.781656E-06  0.468E-02    2.86       1.0  T
   3    -22.8135877  0.230654E-06  0.688E-03    2.86       3.8  T
   4    -22.8135881 -0.433388E-06  0.207E-03    2.86      12.5  T
   5    -22.8135881 -0.118658E-07  0.764E-04    2.86      33.8  T
   6    -22.8135881 -0.892346E-09  0.316E-04    2.86      81.8  T
     SCC iter.                  ...        0 min,  0.102 sec
     gradient                   ...        0 min,  0.001 sec
 * total energy  :   -22.5322800 Eh     change        0.3295447E-05 Eh
   gradient norm :     0.0037005 Eh/α   predicted    -0.7848664E-05 (-338.17%)
   displ. norm   :     0.0780607 α      lambda       -0.2234110E-04
   maximum displ.:     0.0648605 α      in ANC's #1, #4, #3, ...

........................................................................
.............................. CYCLE   42 ..............................
........................................................................

 iter      E             dE          RMSdq      gap      omega  full diag
   1    -22.8144535 -0.228145E+02  0.361E-02    2.85       0.0  T
   2    -22.8144537 -0.170335E-06  0.211E-02    2.85       1.2  T
   3    -22.8144537 -0.225532E-07  0.184E-03    2.85      14.0  T
   4    -22.8144538 -0.116039E-07  0.843E-04    2.85      30.6  T
   5    -22.8144538 -0.263940E-08  0.403E-04    2.85      64.1  T
     SCC iter.                  ...        0 min,  0.107 sec
     gradient                   ...        0 min,  0.001 sec
 * total energy  :   -22.5322931 Eh     change       -0.1318402E-04 Eh
   gradient norm :     0.0017724 Eh/α   predicted    -0.1123862E-04 ( -14.76%)
   displ. norm   :     0.0197665 α      lambda       -0.3397367E-05
   maximum displ.:     0.0176449 α      in ANC's #1, #6, #13, ...
 * RMSD in coord.:     0.6951737 α      energy gain  -0.1200464E-02 Eh

generating ANC from model Hessian ...
Using Lindh-Hessian (1995)
 Shifting diagonal of input Hessian by   6.884100350782475E-003
 Lowest  eigenvalues of input Hessian
    0.000000    0.000000    0.000000    0.000000    0.000000    0.000000
    0.010000    0.011892    0.013919    0.017229    0.021952    0.024902
    0.044055    0.052668    0.057021    0.062026    0.066488    0.074243
 Highest eigenvalues
    1.201434    1.337114    1.560508    1.818930    2.135681    2.273437
 

........................................................................
.............................. CYCLE   43 ..............................
........................................................................

 iter      E             dE          RMSdq      gap      omega  full diag
   1    -22.8146941 -0.228147E+02  0.136E-02    2.85       0.0  T
   2    -22.8146942 -0.633918E-07  0.795E-03    2.85       3.2  T
   3    -22.8146942  0.497215E-08  0.150E-03    2.85      17.2  T
   4    -22.8146942 -0.141227E-07  0.489E-04    2.85      52.8  T
   5    -22.8146942 -0.107937E-08  0.185E-04    2.85     139.9  T
     SCC iter.                  ...        0 min,  0.101 sec
     gradient                   ...        0 min,  0.001 sec
 * total energy  :   -22.5322961 Eh     change       -0.2932229E-05 Eh
   gradient norm :     0.0008010 Eh/α   predicted     0.0000000E+00 (-100.00%)
   displ. norm   :     0.0126670 α      lambda       -0.2626679E-05
   maximum displ.:     0.0093408 α      in ANC's #2, #6, #7, ...

........................................................................
.............................. CYCLE   44 ..............................
........................................................................

 iter      E             dE          RMSdq      gap      omega  full diag
   1    -22.8144396 -0.228144E+02  0.118E-02    2.84       0.0  T
   2    -22.8144396 -0.253227E-07  0.693E-03    2.84       3.7  T
   3    -22.8144396  0.265400E-08  0.946E-04    2.84      27.3  T
   4    -22.8144396 -0.758559E-08  0.300E-04    2.84      86.0  T
     SCC iter.                  ...        0 min,  0.149 sec
     gradient                   ...        0 min,  0.019 sec
 * total energy  :   -22.5322987 Eh     change       -0.2620439E-05 Eh
   gradient norm :     0.0003957 Eh/α   predicted    -0.1312446E-05 ( -49.92%)
   displ. norm   :     0.0258961 α      lambda       -0.2580534E-05
   maximum displ.:     0.0158788 α      in ANC's #2, #1, #6, ...

........................................................................
.............................. CYCLE   45 ..............................
........................................................................

 iter      E             dE          RMSdq      gap      omega  full diag
   1    -22.8143106 -0.228143E+02  0.187E-02    2.84       0.0  T
   2    -22.8143106 -0.312736E-07  0.110E-02    2.84       2.3  T
   3    -22.8143106  0.129852E-08  0.119E-03    2.84      21.6  T
   4    -22.8143106 -0.136006E-07  0.465E-04    2.84      55.5  T
   5    -22.8143106 -0.233189E-09  0.185E-04    2.84     139.3  T
     SCC iter.                  ...        0 min,  0.119 sec
     gradient                   ...        0 min,  0.001 sec
 * total energy  :   -22.5323014 Eh     change       -0.2690197E-05 Eh
   gradient norm :     0.0005828 Eh/α   predicted    -0.1289455E-05 ( -52.07%)
   displ. norm   :     0.0398810 α      lambda       -0.2784114E-05
   maximum displ.:     0.0236286 α      in ANC's #1, #2, #6, ...

........................................................................
.............................. CYCLE   46 ..............................
........................................................................

 iter      E             dE          RMSdq      gap      omega  full diag
   1    -22.8143291 -0.228143E+02  0.249E-02    2.84       0.0  T
   2    -22.8143291 -0.745081E-07  0.146E-02    2.84       1.8  T
   3    -22.8143291  0.513219E-07  0.294E-03    2.84       8.8  T
   4    -22.8143292 -0.804383E-07  0.659E-04    2.84      39.2  T
   5    -22.8143292 -0.810967E-09  0.295E-04    2.84      87.7  T
     SCC iter.                  ...        0 min,  0.105 sec
     gradient                   ...        0 min,  0.001 sec
 * total energy  :   -22.5323042 Eh     change       -0.2868682E-05 Eh
   gradient norm :     0.0005901 Eh/α   predicted    -0.1393497E-05 ( -51.42%)
   displ. norm   :     0.0452529 α      lambda       -0.2414828E-05
   maximum displ.:     0.0288958 α      in ANC's #1, #2, #3, ...

........................................................................
.............................. CYCLE   47 ..............................
........................................................................

 iter      E             dE          RMSdq      gap      omega  full diag
   1    -22.8143403 -0.228143E+02  0.217E-02    2.84       0.0  T
   2    -22.8143404 -0.486551E-07  0.127E-02    2.84       2.0  T
   3    -22.8143403  0.279674E-07  0.225E-03    2.84      11.5  T
   4    -22.8143404 -0.489488E-07  0.587E-04    2.84      44.0  T
   5    -22.8143404 -0.547956E-09  0.238E-04    2.84     108.7  T
     SCC iter.                  ...        0 min,  0.103 sec
     gradient                   ...        0 min,  0.001 sec
 * total energy  :   -22.5323070 Eh     change       -0.2797508E-05 Eh
   gradient norm :     0.0004643 Eh/α   predicted    -0.1209989E-05 ( -56.75%)
   displ. norm   :     0.0510322 α      lambda       -0.2382594E-05
   maximum displ.:     0.0306456 α      in ANC's #1, #2, #3, ...

........................................................................
.............................. CYCLE   48 ..............................
........................................................................

 iter      E             dE          RMSdq      gap      omega  full diag
   1    -22.8143350 -0.228143E+02  0.202E-02    2.84       0.0  T
   2    -22.8143350 -0.346876E-07  0.118E-02    2.84       2.2  T
   3    -22.8143350 -0.383175E-08  0.113E-03    2.84      22.8  T
   4    -22.8143350 -0.101376E-07  0.535E-04    2.84      48.3  T
   5    -22.8143350 -0.633811E-09  0.184E-04    2.84     140.1  T
     SCC iter.                  ...        0 min,  0.122 sec
     gradient                   ...        0 min,  0.002 sec
 * total energy  :   -22.5323096 Eh     change       -0.2519680E-05 Eh
   gradient norm :     0.0003621 Eh/α   predicted    -0.1194281E-05 ( -52.60%)
   displ. norm   :     0.0392956 α      lambda       -0.1283477E-05
   maximum displ.:     0.0215746 α      in ANC's #1, #2, #6, ...

........................................................................
.............................. CYCLE   49 ..............................
........................................................................

 iter      E             dE          RMSdq      gap      omega  full diag
   1    -22.8143360 -0.228143E+02  0.146E-02    2.84       0.0  T
   2    -22.8143360 -0.270111E-07  0.852E-03    2.84       3.0  T
   3    -22.8143360  0.773475E-08  0.142E-03    2.84      18.1  T
   4    -22.8143360 -0.155882E-07  0.359E-04    2.84      71.9  T
   5    -22.8143360 -0.310230E-09  0.203E-04    2.84     127.1  T
     SCC iter.                  ...        0 min,  0.126 sec
     gradient                   ...        0 min,  0.001 sec
 * total energy  :   -22.5323109 Eh     change       -0.1319796E-05 Eh
   gradient norm :     0.0003016 Eh/α   predicted    -0.6439092E-06 ( -51.21%)
   displ. norm   :     0.0273651 α      lambda       -0.8395968E-06
   maximum displ.:     0.0152293 α      in ANC's #6, #2, #1, ...

........................................................................
.............................. CYCLE   50 ..............................
........................................................................

 iter      E             dE          RMSdq      gap      omega  full diag
   1    -22.8143288 -0.228143E+02  0.103E-02    2.83       0.0  T
   2    -22.8143288 -0.363771E-07  0.599E-03    2.83       4.3  T
   3    -22.8143288  0.161454E-07  0.200E-03    2.83      12.9  T
   4    -22.8143288 -0.261549E-07  0.345E-04    2.83      74.8  T
   5    -22.8143288 -0.468617E-09  0.186E-04    2.83     139.1  T
     SCC iter.                  ...        0 min,  0.122 sec
     gradient                   ...        0 min,  0.002 sec
 * total energy  :   -22.5323119 Eh     change       -0.9756143E-06 Eh
   gradient norm :     0.0002583 Eh/α   predicted    -0.4211150E-06 ( -56.84%)
   displ. norm   :     0.0312443 α      lambda       -0.1072350E-05
   maximum displ.:     0.0206775 α      in ANC's #6, #2, #3, ...

........................................................................
.............................. CYCLE   51 ..............................
........................................................................

 iter      E             dE          RMSdq      gap      omega  full diag
   1    -22.8143322 -0.228143E+02  0.129E-02    2.83       0.0  T
   2    -22.8143322 -0.757511E-07  0.749E-03    2.83       3.4  T
   3    -22.8143322  0.298695E-07  0.299E-03    2.83       8.6  T
   4    -22.8143323 -0.527284E-07  0.488E-04    2.83      52.9  T
   5    -22.8143323 -0.911573E-09  0.255E-04    2.83     101.4  T
     SCC iter.                  ...        0 min,  0.109 sec
     gradient                   ...        0 min,  0.002 sec
 * total energy  :   -22.5323130 Eh     change       -0.1132988E-05 Eh
   gradient norm :     0.0002299 Eh/α   predicted    -0.5350445E-06 ( -52.78%)
   displ. norm   :     0.0198686 α      lambda       -0.5486787E-06
   maximum displ.:     0.0139822 α      in ANC's #6, #2, #4, ...

........................................................................
.............................. CYCLE   52 ..............................
........................................................................

 iter      E             dE          RMSdq      gap      omega  full diag
   1    -22.8143207 -0.228143E+02  0.863E-03    2.83       0.0  T
   2    -22.8143207 -0.230455E-07  0.501E-03    2.83       5.1  T
   3    -22.8143207  0.110132E-07  0.163E-03    2.83      15.8  T
   4    -22.8143207 -0.187811E-07  0.311E-04    2.83      82.9  T
   5    -22.8143207 -0.183867E-09  0.159E-04    2.83     162.5  T
     SCC iter.                  ...        0 min,  0.145 sec
     gradient                   ...        0 min,  0.005 sec
 * total energy  :   -22.5323135 Eh     change       -0.5454494E-06 Eh
   gradient norm :     0.0001413 Eh/α   predicted    -0.2737620E-06 ( -49.81%)
   displ. norm   :     0.0101715 α      lambda       -0.1785845E-06
   maximum displ.:     0.0069052 α      in ANC's #6, #2, #4, ...

........................................................................
.............................. CYCLE   53 ..............................
........................................................................

 iter      E             dE          RMSdq      gap      omega  full diag
   1    -22.8143365 -0.228143E+02  0.385E-03    2.83       0.0  T
   2    -22.8143365 -0.238321E-08  0.225E-03    2.83      11.5  T
   3    -22.8143365  0.101461E-08  0.473E-04    2.83      54.5  T
   4    -22.8143365 -0.185514E-08  0.115E-04    2.83     225.1  T
     SCC iter.                  ...        0 min,  0.110 sec
     gradient                   ...        0 min,  0.002 sec
 * total energy  :   -22.5323137 Eh     change       -0.1847968E-06 Eh
   gradient norm :     0.0000815 Eh/α   predicted    -0.8964252E-07 ( -51.49%)
   displ. norm   :     0.0071751 α      lambda       -0.1030782E-06
   maximum displ.:     0.0046300 α      in ANC's #2, #6, #1, ...

........................................................................
.............................. CYCLE   54 ..............................
........................................................................

 iter      E             dE          RMSdq      gap      omega  full diag
   1    -22.8143387 -0.228143E+02  0.231E-03    2.83       0.0  T
   2    -22.8143387 -0.102104E-08  0.137E-03    2.83      18.9  T
   3    -22.8143387  0.948610E-10  0.196E-04    2.83     131.8  T
   4    -22.8143387 -0.265061E-09  0.583E-05    2.83     442.7  T
     SCC iter.                  ...        0 min,  0.110 sec
     gradient                   ...        0 min,  0.001 sec
 * total energy  :   -22.5323138 Eh     change       -0.1157523E-06 Eh
   gradient norm :     0.0000849 Eh/α   predicted    -0.5054678E-07 ( -56.33%)
   displ. norm   :     0.0094790 α      lambda       -0.1322422E-06
   maximum displ.:     0.0063498 α      in ANC's #2, #6, #1, ...

........................................................................
.............................. CYCLE   55 ..............................
........................................................................

 iter      E             dE          RMSdq      gap      omega  full diag
   1    -22.8143518 -0.228144E+02  0.371E-03    2.83       0.0  T
   2    -22.8143518 -0.230776E-08  0.220E-03    2.83      11.8  T
   3    -22.8143518  0.423608E-09  0.342E-04    2.83      75.6  T
   4    -22.8143518 -0.870745E-09  0.912E-05    2.83     283.2  T
     SCC iter.                  ...        0 min,  0.104 sec
     gradient                   ...        0 min,  0.001 sec
 * total energy  :   -22.5323140 Eh     change       -0.1498643E-06 Eh
   gradient norm :     0.0001181 Eh/α   predicted    -0.6477862E-07 ( -56.78%)
   displ. norm   :     0.0133177 α      lambda       -0.1572564E-06
   maximum displ.:     0.0095582 α      in ANC's #2, #1, #6, ...

........................................................................
.............................. CYCLE   56 ..............................
........................................................................

 iter      E             dE          RMSdq      gap      omega  full diag
   1    -22.8143478 -0.228143E+02  0.601E-03    2.83       0.0  T
   2    -22.8143478 -0.358042E-08  0.356E-03    2.83       7.3  T
   3    -22.8143478  0.338094E-09  0.411E-04    2.83      62.8  T
   4    -22.8143478 -0.129807E-08  0.133E-04    2.83     193.6  T
     SCC iter.                  ...        0 min,  0.106 sec
     gradient                   ...        0 min,  0.006 sec
 * total energy  :   -22.5323142 Eh     change       -0.1818621E-06 Eh
   gradient norm :     0.0001161 Eh/α   predicted    -0.7988566E-07 ( -56.07%)
   displ. norm   :     0.0117710 α      lambda       -0.1314830E-06
   maximum displ.:     0.0086904 α      in ANC's #2, #1, #7, ...

........................................................................
.............................. CYCLE   57 ..............................
........................................................................

 iter      E             dE          RMSdq      gap      omega  full diag
   1    -22.8143520 -0.228144E+02  0.610E-03    2.83       0.0  T
   2    -22.8143520 -0.273137E-08  0.360E-03    2.83       7.2  T
   3    -22.8143520  0.520092E-09  0.379E-04    2.83      68.2  T
   4    -22.8143520 -0.146242E-08  0.138E-04    2.83     187.2  T
     SCC iter.                  ...        0 min,  0.107 sec
     gradient                   ...        0 min,  0.001 sec
 * total energy  :   -22.5323143 Eh     change       -0.1476059E-06 Eh
   gradient norm :     0.0000770 Eh/α   predicted    -0.6499459E-07 ( -55.97%)
   displ. norm   :     0.0063107 α      lambda       -0.7827218E-07
   maximum displ.:     0.0047571 α      in ANC's #2, #1, #3, ...

........................................................................
.............................. CYCLE   58 ..............................
........................................................................

 iter      E             dE          RMSdq      gap      omega  full diag
   1    -22.8143466 -0.228143E+02  0.352E-03    2.83       0.0  T
   2    -22.8143466 -0.131307E-08  0.207E-03    2.83      12.5  T
   3    -22.8143466  0.122048E-08  0.402E-04    2.83      64.2  T
   4    -22.8143466 -0.178131E-08  0.883E-05    2.83     292.3  T
     SCC iter.                  ...        0 min,  0.106 sec
     gradient                   ...        0 min,  0.001 sec
 * total energy  :   -22.5323144 Eh     change       -0.8581385E-07 Eh
   gradient norm :     0.0000406 Eh/α   predicted    -0.3732862E-07 ( -56.50%)
   displ. norm   :     0.0040643 α      lambda       -0.3768380E-07
   maximum displ.:     0.0029275 α      in ANC's #2, #1, #3, ...

   *** GEOMETRY OPTIMIZATION CONVERGED AFTER 58 ITERATIONS ***

------------------------------------------------------------------------
 total energy gain   :        -0.0085179 Eh       -5.3451 kcal/mol
 total RMSD          :         1.0875740 a0        0.5755 Å
 total power (kW/mol):        -0.3855821 (step)   -3.2949 (real)
------------------------------------------------------------------------

 ANCopt (total)                0 d,  0 h,  0 min,  6.787 sec
 optimizer setup                ...        0 min,  0.000 sec (  0.002%)
 model hessian                  ...        0 min,  0.009 sec (  0.129%)
 ANC generation                 ...        0 min,  0.001 sec (  0.017%)
 coordinate transformation      ...        0 min,  0.001 sec (  0.010%)
 single point calculation       ...        0 min,  6.752 sec ( 99.479%)
 optimization log               ...        0 min,  0.005 sec (  0.077%)
 hessian update                 ...        0 min,  0.009 sec (  0.126%)
 rational function              ...        0 min,  0.008 sec (  0.111%)

================
 final structure:
================
15
 xtb: 6.7.0 (08769fc)
C           -2.08068320241660        0.77467252496664       -0.20756718089851
N           -1.40860872681672       -0.49951137066135       -0.10720012392293
C           -0.09965224835819       -0.72628789182203        0.15430161200674
N            0.44016336959883       -1.87199744528484        0.30719833508802
C            0.83442428023528        0.45213669072477        0.30559730047066
C            2.19055085108594        0.22342757819631       -0.28354979583519
O            0.50901428447740        1.46077728154905        0.88882097174683
H           -2.95748849515736        0.65962665612642       -0.84389630938999
H           -1.41912167905868        1.51696713027273       -0.64968428891725
H           -2.39638182437747        1.14116366265362        0.77412356828361
H           -2.01210384543028       -1.31048897661729       -0.06936953353612
H           -0.21268445755574       -2.65272302410547        0.26046099726591
H            2.87364081662004        1.01761419241447        0.00517719525826
H            2.10303794760963        0.18638817265289       -1.36843307122840
H            2.54699396354393       -0.74901307576602        0.04746414660855
 
 Bond Distances (Angstroems)
 ---------------------------
C1-N2=1.4441         C1-H8=1.0895         C1-H9=1.0882         C1-H10=1.0944        N2-C1=1.4441         N2-C3=1.3539         
N2-H11=1.0116        C3-N2=1.3539         C3-N4=1.2757         C3-C5=1.5113         N4-C3=1.2757         N4-H12=1.0188        
C5-C3=1.5113         C5-C6=1.4962         C5-O7=1.2097         C6-C5=1.4962         C6-H13=1.0866        C6-H14=1.0890        
C6-H15=1.0873        O7-C5=1.2097         H8-C1=1.0895         H9-C1=1.0882         H10-C1=1.0944        H11-N2=1.0116        
H12-N4=1.0188        H13-C6=1.0866        H14-C6=1.0890        H15-C6=1.0873        
 C  H  Rav=1.0892 sigma=0.0025  Rmin=1.0866  Rmax=1.0944     6
 C  C  Rav=1.5037 sigma=0.0076  Rmin=1.4962  Rmax=1.5113     2
 N  H  Rav=1.0152 sigma=0.0036  Rmin=1.0116  Rmax=1.0188     2
 N  C  Rav=1.3579 sigma=0.0688  Rmin=1.2757  Rmax=1.4441     3
 O  C  Rav=1.2097 sigma=0.0000  Rmin=1.2097  Rmax=1.2097     1
 
 selected bond angles (degree)
 --------------------
H8-C1-N2=108.78                H9-C1-N2=110.32                H9-C1-H8=108.91                H10-C1-N2=111.56               
H10-C1-H8=109.09               H10-C1-H9=108.14               C3-N2-C1=127.67                H11-N2-C1=115.62               
H11-N2-C3=115.80               N4-C3-N2=125.64                C5-C3-N2=119.09                C5-C3-N4=115.26                
H12-N4-C3=114.30               C6-C5-C3=113.68                O7-C5-C3=122.15                O7-C5-C6=124.13                
H13-C6-C5=110.70               H14-C6-C5=108.94               H14-C6-H13=109.88              H15-C6-C5=108.30               
H15-C6-H13=111.51              H15-C6-H14=107.41              
 
 selected dihedral angles (degree)
 ---------------------------------
C3-N2-C1-H8=154.51            C3-N2-C1-H9= 35.11            C3-N2-C1-H10=274.89           H11-N2-C1-H8=323.04           
H11-N2-C1-H9=203.64           H11-N2-C1-H10= 83.43          N4-C3-N2-C1=175.89            N4-C3-N2-H11=  7.38           
C5-C3-N2-C1=356.83            C5-C3-N2-H11=188.32           H12-N4-C3-N2=357.25           H12-N4-C3-C5=176.34           
C6-C5-C3-N2=218.01            C6-C5-C3-N4= 38.85            O7-C5-C3-N2= 40.17            O7-C5-C3-N4=221.01            
H13-C6-C5-C3=190.23           H13-C6-C5-O7=  8.02           H14-C6-C5-C3= 69.29           H14-C6-C5-O7=247.08           
H15-C6-C5-C3=312.76           H15-C6-C5-O7=130.55           
           -------------------------------------------------
          |                Final Singlepoint                |
           -------------------------------------------------

          ...................................................
          :                      SETUP                      :
          :.................................................:
          :  # basis functions                  36          :
          :  # atomic orbitals                  36          :
          :  # shells                           22          :
          :  # electrons                        40          :
          :  max. iterations                  4000          :
          :  Hamiltonian                  GFN2-xTB          :
          :  restarted?                      false          :
          :  GBSA solvation                   true          :
          :  PC potential                    false          :
          :  electronic temp.          300.0000000     K    :
          :  accuracy                    1.0000000          :
          :  -> integral cutoff          0.2500000E+02      :
          :  -> integral neglect         0.1000000E-07      :
          :  -> SCF convergence          0.1000000E-05 Eh   :
          :  -> wf. convergence          0.1000000E-03 e    :
          :  Broyden damping             0.4000000          :
          :  net charge                          0          :
          :  unpaired electrons                  0          :
          ...................................................

 iter      E             dE          RMSdq      gap      omega  full diag
   1    -22.8143466 -0.228143E+02  0.329E-05    2.83       0.0  T
   2    -22.8143466 -0.271072E-11  0.202E-05    2.83    1279.0  T
   3    -22.8143466 -0.504485E-12  0.121E-05    2.83    2137.0  T

   *** convergence criteria satisfied after 3 iterations ***

         #    Occupation            Energy/Eh            Energy/eV
      -------------------------------------------------------------
         1        2.0000           -0.7198304             -19.5876
       ...           ...                  ...                  ...
        14        2.0000           -0.4815993             -13.1050
        15        2.0000           -0.4739655             -12.8973
        16        2.0000           -0.4716352             -12.8338
        17        2.0000           -0.4657736             -12.6743
        18        2.0000           -0.4078144             -11.0972
        19        2.0000           -0.3844863             -10.4624
        20        2.0000           -0.3800876             -10.3427 (HOMO)
        21                         -0.2759460              -7.5089 (LUMO)
        22                         -0.1805517              -4.9131
        23                         -0.0002631              -0.0072
        24                          0.0608121               1.6548
        25                          0.1229715               3.3462
       ...                                ...                  ...
        36                          0.6601758              17.9643
      -------------------------------------------------------------
                  HL-Gap            0.1041416 Eh            2.8338 eV
             Fermi-level           -0.3280168 Eh           -8.9258 eV

 SCC (total)                   0 d,  0 h,  0 min,  0.108 sec
 SCC setup                      ...        0 min,  0.000 sec (  0.163%)
 Dispersion                     ...        0 min,  0.000 sec (  0.048%)
 classical contributions        ...        0 min,  0.000 sec (  0.011%)
 integral evaluation            ...        0 min,  0.000 sec (  0.392%)
 iterations                     ...        0 min,  0.106 sec ( 98.072%)
 molecular gradient             ...        0 min,  0.001 sec (  1.192%)
 printout                       ...        0 min,  0.000 sec (  0.087%)

         :::::::::::::::::::::::::::::::::::::::::::::::::::::
         ::                     SUMMARY                     ::
         :::::::::::::::::::::::::::::::::::::::::::::::::::::
         :: total energy             -22.532314405593 Eh    ::
         :: total w/o Gsasa/hb       -22.523510651705 Eh    ::
         :: gradient norm              0.000041899127 Eh/a0 ::
         :: HOMO-LUMO gap              2.833838363683 eV    ::
         ::.................................................::
         :: SCC energy               -22.814323337290 Eh    ::
         :: -> isotropic ES            0.048282612381 Eh    ::
         :: -> anisotropic ES          0.003250352367 Eh    ::
         :: -> anisotropic XC          0.013377325340 Eh    ::
         :: -> dispersion             -0.009157935274 Eh    ::
         :: -> Gsolv                  -0.011792882147 Eh    ::
         ::    -> Gelec               -0.002989128260 Eh    ::
         ::    -> Gsasa               -0.011011897026 Eh    ::
         ::    -> Ghb                  0.000000000000 Eh    ::
         ::    -> Gshift               0.002208143139 Eh    ::
         :: repulsion energy           0.282008931697 Eh    ::
         :: add. restraining           0.000000000000 Eh    ::
         :: total charge              -0.000000000000 e     ::
         :::::::::::::::::::::::::::::::::::::::::::::::::::::

           -------------------------------------------------
          |                Property Printout                |
           -------------------------------------------------

    * Orbital Energies and Occupations

         #    Occupation            Energy/Eh            Energy/eV
      -------------------------------------------------------------
         1        2.0000           -0.7198304             -19.5876
       ...           ...                  ...                  ...
         8        2.0000           -0.5554991             -15.1159
         9        2.0000           -0.5431792             -14.7807
        10        2.0000           -0.5330455             -14.5049
        11        2.0000           -0.5300147             -14.4224
        12        2.0000           -0.5188241             -14.1179
        13        2.0000           -0.4951583             -13.4739
        14        2.0000           -0.4815993             -13.1050
        15        2.0000           -0.4739655             -12.8973
        16        2.0000           -0.4716352             -12.8338
        17        2.0000           -0.4657736             -12.6743
        18        2.0000           -0.4078144             -11.0972
        19        2.0000           -0.3844863             -10.4624
        20        2.0000           -0.3800876             -10.3427 (HOMO)
        21                         -0.2759460              -7.5089 (LUMO)
        22                         -0.1805517              -4.9131
        23                         -0.0002631              -0.0072
        24                          0.0608121               1.6548
        25                          0.1229715               3.3462
        26                          0.1383743               3.7654
        27                          0.1594983               4.3402
        28                          0.1720830               4.6826
        29                          0.1891119               5.1460
        30                          0.2021982               5.5021
        31                          0.2201020               5.9893
       ...                                ...                  ...
        36                          0.6601758              17.9643
      -------------------------------------------------------------
                  HL-Gap            0.1041416 Eh            2.8338 eV
             Fermi-level           -0.3280168 Eh           -8.9258 eV

     #   Z          covCN         q      C6AA      α(0)
     1   6 C        3.684    -0.039    21.473     6.635
     2   7 N        2.686    -0.165    24.579     7.363
     3   6 C        2.804     0.144    24.852     8.167
     4   7 N        1.788    -0.396    31.206     8.274
     5   6 C        2.822     0.241    22.982     7.855
     6   6 C        3.755    -0.144    23.342     6.889
     7   8 O        0.857    -0.369    21.066     6.154
     8   1 H        0.925     0.057     2.232     2.337
     9   1 H        0.925     0.062     2.177     2.307
    10   1 H        0.924     0.055     2.259     2.350
    11   1 H        0.860     0.172     1.260     1.758
    12   1 H        0.860     0.127     1.572     1.964
    13   1 H        0.925     0.072     2.066     2.248
    14   1 H        0.925     0.082     1.959     2.189
    15   1 H        0.925     0.102     1.770     2.081

 Mol. C6AA /au·bohr⁶  :       2051.732077
 Mol. C8AA /au·bohr⁸  :      44734.890678
 Mol. α(0) /au        :         68.569242


Wiberg/Mayer (AO) data.
largest (>0.10) Wiberg bond orders for each atom

 ---------------------------------------------------------------------------
     #   Z sym  total        # sym  WBO       # sym  WBO       # sym  WBO
 ---------------------------------------------------------------------------
     1   6 C    3.969 --     2 N    1.007     8 H    0.982     9 H    0.979
                            10 H    0.973
     2   7 N    3.429 --     3 C    1.232     1 C    1.007    11 H    0.937
                             4 N    0.219
     3   6 C    3.970 --     4 N    1.693     2 N    1.232     5 C    0.953
     4   7 N    2.972 --     3 C    1.693    12 H    0.950     2 N    0.219
     5   6 C    3.912 --     7 O    1.843     6 C    1.023     3 C    0.953
     6   6 C    3.991 --     5 C    1.023    13 H    0.981    15 H    0.949
                            14 H    0.948
     7   8 O    2.064 --     5 C    1.843
     8   1 H    0.997 --     1 C    0.982
     9   1 H    0.996 --     1 C    0.979
    10   1 H    0.997 --     1 C    0.973
    11   1 H    0.970 --     2 N    0.937
    12   1 H    0.984 --     4 N    0.950
    13   1 H    0.994 --     6 C    0.981
    14   1 H    0.993 --     6 C    0.948
    15   1 H    0.990 --     6 C    0.949
 ---------------------------------------------------------------------------

Topologies differ in total number of bonds
Writing topology from bond orders to xtbtopo.mol

molecular dipole:
                 x           y           z       tot (Debye)
 q only:       -0.573      -0.241      -0.791
   full:       -1.003      -0.377      -0.872       3.512
molecular quadrupole (traceless):
                xx          xy          yy          xz          yz          zz
 q only:        8.479       1.109      -5.594      -1.184      -1.970      -2.885
  q+dip:        8.777       4.676      -5.931      -1.637      -2.291      -2.846
   full:        8.239       4.299      -6.216      -1.488      -2.683      -2.023

           -------------------------------------------------
          |                Geometry Summary                 |
           -------------------------------------------------

      molecular mass/u    :      100.1192809
   center of mass at/Å    :        0.0323427      -0.0134067       0.1477055
  moments of inertia/u·Å² :        0.1357717E+03   0.2103455E+03   0.3121192E+03
rotational constants/cm⁻¹ :        0.1241616E+00   0.8014258E-01   0.5401023E-01

 * 11 selected distances

     #   Z          #   Z                                           value/Å
     1   6 C        2   7 N                                       1.4440577 (max)
     2   7 N        3   6 C                                       1.3539491
     3   6 C        4   7 N                                       1.2757073
     5   6 C        7   8 O                                       1.2097097
     1   6 C        8   1 H                                       1.0894669
     1   6 C        9   1 H                                       1.0881786
     1   6 C       10   1 H                                       1.0943940
     2   7 N       11   1 H                                       1.0115940 (min)
     6   6 C       13   1 H                                       1.0866038
     6   6 C       14   1 H                                       1.0890374
     6   6 C       15   1 H                                       1.0873192

 * 4 distinct bonds (by element types)

   Z      Z             #   av. dist./Å        max./Å        min./Å
   1 H    6 C           6     1.0891666     1.0943940     1.0866038
   1 H    7 N           1     1.0115940     1.0115940     1.0115940
   6 C    7 N           3     1.3579047     1.4440577     1.2757073
   6 C    8 O           1     1.2097097     1.2097097     1.2097097


optimized geometry written to: xtbopt.xyz


           -------------------------------------------------
          | TOTAL ENERGY              -22.532314405593 Eh   |
          | GRADIENT NORM               0.000041899127 Eh/α |
          | HOMO-LUMO GAP               2.833838363683 eV   |
           -------------------------------------------------

------------------------------------------------------------------------
 * finished run on 2024/08/07 at 20:05:30.309     
------------------------------------------------------------------------
 total:
 * wall-time:     0 d,  0 h,  0 min,  7.025 sec
 *  cpu-time:     0 d,  0 h,  0 min, 51.573 sec
 * ratio c/w:     7.342 speedup
 SCF:
 * wall-time:     0 d,  0 h,  0 min,  0.118 sec
 *  cpu-time:     0 d,  0 h,  0 min,  0.909 sec
 * ratio c/w:     7.694 speedup
 ANC optimizer:
 * wall-time:     0 d,  0 h,  0 min,  6.897 sec
 *  cpu-time:     0 d,  0 h,  0 min, 50.607 sec
 * ratio c/w:     7.337 speedup

