15
 energy: -22.532314405593 gnorm: 0.000041899127 xtb: 6.7.0 (08769fc)
C           -2.08068320241660        0.77467252496664       -0.20756718089851
N           -1.40860872681672       -0.49951137066135       -0.10720012392293
C           -0.09965224835819       -0.72628789182203        0.15430161200674
N            0.44016336959883       -1.87199744528484        0.30719833508802
C            0.83442428023528        0.45213669072477        0.30559730047066
C            2.19055085108594        0.22342757819631       -0.28354979583519
O            0.50901428447740        1.46077728154905        0.88882097174683
H           -2.95748849515736        0.65962665612642       -0.84389630938999
H           -1.41912167905868        1.51696713027273       -0.64968428891725
H           -2.39638182437747        1.14116366265362        0.77412356828361
H           -2.01210384543028       -1.31048897661729       -0.06936953353612
H           -0.21268445755574       -2.65272302410547        0.26046099726591
H            2.87364081662004        1.01761419241447        0.00517719525826
H            2.10303794760963        0.18638817265289       -1.36843307122840
H            2.54699396354393       -0.74901307576602        0.04746414660855
