15
 energy: -22.523796498168 gnorm: 0.076702463528 xtb: 6.7.0 (08769fc)
C           -2.14118262980000        0.74955544790000       -0.10882554280000
N           -1.47877064670000       -0.51936973140000        0.10576038790000
C           -0.09741836480000       -0.70282046030000        0.03295517750000
N            0.38876998430000       -1.88604338720000       -0.02350986670000
C            0.81183258850000        0.45632642750000        0.02037740730000
C            2.27834259060000        0.20663451750000       -0.06094681860000
O            0.39332442510000        1.59017144940000        0.06702547750000
H           -3.20000238770000        0.69968017430000        0.14528374190000
H           -2.03439078000000        1.05540293890000       -1.14955233740000
H           -1.67172410070000        1.50843738840000        0.51704172410000
H           -2.07424548810000       -1.32582266510000       -0.07727944680000
H           -0.23046783950000       -2.65216286720000       -0.00849316890000
H            2.79413140790000        0.72650338760000        0.74542139990000
H            2.67252841220000        0.57386047480000       -1.00796627410000
H            2.50037386270000       -0.85760098980000        0.01615196220000
15
 energy: -22.528624906396 gnorm: 0.036533678710 xtb: 6.7.0 (08769fc)
C           -2.16001302453213        0.75407437462019       -0.11158571985270
N           -1.46345434408123       -0.49943949657553        0.09325996807557
C           -0.10054322652611       -0.69081857821379        0.01697430921193
N            0.41842085247187       -1.85857746704200       -0.01038517142512
C            0.82240332620534        0.47961702009513        0.01972387088165
C            2.28483511447850        0.17089006533029       -0.05586394947713
O            0.43097985239378        1.62852241504345        0.06015963366351
H           -3.21272506634765        0.63819061478317        0.14740713908811
H           -2.07867858729504        1.08486468992122       -1.15178489052645
H           -1.72684193096805        1.52469315628352        0.52404663805773
H           -2.03426565058060       -1.32060352922695       -0.06975288459249
H           -0.21583974659403       -2.64203358188636       -0.00833232479007
H            2.79863587408351        0.70361225979330        0.74307837985399
H            2.67287212839886        0.54740139681330       -1.00135143804864
H            2.47531546289299       -0.89764123443892        0.01785026288011
15
 energy: -22.529975498721 gnorm: 0.009311320554 xtb: 6.7.0 (08769fc)
C           -2.17168236179140        0.75817391691905       -0.11353201694764
N           -1.45104808619290       -0.48320648280034        0.07639153641527
C           -0.10672368122608       -0.68422199060334        0.00987498368234
N            0.44238689824951       -1.83743173821787       -0.00191534610737
C            0.82830782488682        0.49598257707375        0.01449936945832
C            2.28900027790975        0.15044120894136       -0.05188486055573
O            0.44890658213338        1.64727828974647        0.05666280629843
H           -3.21788487063211        0.59164349432370        0.14888437770063
H           -2.11259311993597        1.10748165527217       -1.15126696893792
H           -1.76208092630330        1.53485081110042        0.52995952405760
H           -2.00447776181902       -1.31894599156665       -0.06173692141878
H           -0.20404258611193       -2.62590837155355       -0.00899458573442
H            2.80950475579179        0.68420162432651        0.74148836957440
H            2.67917472370026        0.52235147369400       -0.99848196821634
H            2.44435336534118       -0.91993837135567        0.02349552373120
15
 energy: -22.530130668865 gnorm: 0.004697486874 xtb: 6.7.0 (08769fc)
C           -2.17933421111570        0.75754520434140       -0.11347239827888
N           -1.44834877014300       -0.47872711786357        0.06283256667271
C           -0.10699713317973       -0.68087672659630        0.00532495596399
N            0.44670356534893       -1.83197142966711       -0.00291600576376
C            0.83442624682202        0.50086818071222        0.01370119240855
C            2.29371538443367        0.14862322929012       -0.05092565721219
O            0.45500996991822        1.65054154323393        0.05473398306028
H           -3.22182997883283        0.57935344601197        0.14878034557223
H           -2.12602189271579        1.11533449101506       -1.14774563737147
H           -1.77591394392866        1.53198771600621        0.53564918875594
H           -1.99881661971655       -1.31999274048190       -0.05926872039521
H           -0.20434844545462       -2.61702225827242       -0.00355556076888
H            2.81940134383907        0.67904870538306        0.74076028140710
H            2.68779273193885        0.51031102721938       -0.99996922817847
H            2.43566278678610       -0.92227116503202        0.02951451712804
15
 energy: -22.530208577523 gnorm: 0.003623028525 xtb: 6.7.0 (08769fc)
C           -2.18409172596417        0.75684576707426       -0.11252561818243
N           -1.44591567716700       -0.47626926750217        0.04676313985609
C           -0.10544033728385       -0.67868849888987        0.00186065488247
N            0.44789890313012       -1.83035796395613       -0.00263161692960
C            0.83933258479112        0.50447705611332        0.00853183284593
C            2.29713573648656        0.14911037345572       -0.05002035201474
O            0.45578759612352        1.65182611727503        0.05043502795341
H           -3.22366806357725        0.56989603709939        0.14874838986714
H           -2.13489180246804        1.12532386489212       -1.14235080739524
H           -1.78454734560114        1.52651140015420        0.54449306903863
H           -1.99599124181014       -1.32086005451977       -0.05693706438996
H           -0.20756244717729       -2.61041344883196        0.00039638223953
H            2.82588275490600        0.67924741257563        0.73945203114563
H            2.69628286548141        0.49801236329353       -1.00169660853384
H            2.43088923413013       -0.92190905293330        0.03892536261698
15
 energy: -22.530250454992 gnorm: 0.003155827650 xtb: 6.7.0 (08769fc)
C           -2.18531029921481        0.75685121752485       -0.11094565187206
N           -1.44389267159859       -0.47591889121013        0.03050727240886
C           -0.10331828741013       -0.67816615131633       -0.00144709854021
N            0.44775645903091       -1.83153237267994        0.00013745341625
C            0.84160442986571        0.50587028586035        0.00587043124286
C            2.29814172420784        0.14993637867285       -0.04931630107221
O            0.45327660427464        1.65168044959094        0.04444464494797
H           -3.22387762704003        0.56357717381308        0.14805589937623
H           -2.13750322666492        1.13838582714622       -1.13585507543056
H           -1.78797646697557        1.51985106270650        0.55570222009672
H           -1.99478437769783       -1.32119499560144       -0.05844234147819
H           -0.21048795338914       -2.60804724271571        0.00389894430787
H            2.82861368183153        0.68583412070755        0.73512795453378
H            2.69932346968688        0.48630041335927       -1.00469765749646
H            2.42953557509349       -0.92067517055806        0.05040312855913
15
 energy: -22.530288574110 gnorm: 0.002796232827 xtb: 6.7.0 (08769fc)
C           -2.18462470702099        0.75737983628175       -0.10773322001689
N           -1.44189140121661       -0.47684594803467        0.01060919300733
C           -0.10106127897074       -0.67872334826586       -0.00512054854406
N            0.44721705073294       -1.83394351969903        0.00510445185467
C            0.84197069827500        0.50592612995333        0.00013831751469
C            2.29777173239919        0.15068324742779       -0.04821401725714
O            0.44922232126191        1.65071472283379        0.03438487216511
H           -3.22356267271180        0.55790088290888        0.14526120638726
H           -2.13509933013598        1.15817366623739       -1.12531413919627
H           -1.78987354533723        1.50962868118947        0.57353365830652
H           -1.99412021621602       -1.32156024071061       -0.06305457773375
H           -0.21297298831843       -2.60814532567302        0.00743731245072
H            2.82871132927123        0.69957411935706        0.72733599590817
H            2.69957397681691        0.47068897564202       -1.00908976340855
H            2.42984006517059       -0.91869977414828        0.06816508156216
15
 energy: -22.530317268209 gnorm: 0.002584591469 xtb: 6.7.0 (08769fc)
C           -2.18282847735526        0.75815402037114       -0.10454617172026
N           -1.44122461655550       -0.47834012878045       -0.00432797712672
C           -0.10030354035939       -0.67993205168362       -0.00855151135429
N            0.44679485432430       -1.83574961087422        0.00885501332765
C            0.84045139099438        0.50462669162679       -0.00364453125421
C            2.29654640420811        0.15102391204932       -0.04706837357384
O            0.44643208805450        1.64950538383515        0.02545052786431
H           -3.22325569931788        0.55550757938294        0.14078253322772
H           -2.12881221372512        1.17563560936615       -1.11526044166093
H           -1.79010762331714        1.49981432956662        0.58997462270292
H           -1.99479880593131       -1.32209369148084       -0.06777731826193
H           -0.21324796547405       -2.61025759283254        0.00944355644478
H            2.82733211935908        0.71455636774102        0.71852251604145
H            2.69641027213597        0.45673180112477       -1.01356076989606
H            2.43171284695927       -0.91643051411223        0.08515214823939
15
 energy: -22.530345520696 gnorm: 0.002140225991 xtb: 6.7.0 (08769fc)
C           -2.18065639627728        0.75901906685839       -0.10130944092937
N           -1.44158654774239       -0.47988967534766       -0.01520851873433
C           -0.10083565917594       -0.68139760107467       -0.01169792254647
N            0.44677745558555       -1.83660942935750        0.01061066272039
C            0.83782889783536        0.50281015634862       -0.00733986062004
C            2.29504126902436        0.15113794942095       -0.04577137350839
O            0.44498130391089        1.64842569929281        0.01758418616817
H           -3.22338472758390        0.55502778351996        0.13412132102900
H           -2.11941682747330        1.19135466975676       -1.10515749300391
H           -1.79069791139295        1.49012221789810        0.60603275408219
H           -1.99640176743711       -1.32284929989511       -0.07113455071695
H           -0.21153831069855       -2.61320746537537        0.00945647536091
H            2.82531019935340        0.73020454478449        0.70871203017542
H            2.69155284979744        0.44231859676896       -1.01823306667771
H            2.43412720627438       -0.91371510829872        0.10277862020108
15
 energy: -22.530376039653 gnorm: 0.002323495928 xtb: 6.7.0 (08769fc)
C           -2.17840522132648        0.76006063284093       -0.09751479849286
N           -1.44259083414521       -0.48148234393756       -0.02515198351909
C           -0.10215575184255       -0.68312053299272       -0.01514172632839
N            0.44737957428267       -1.83694212393592        0.01061850826139
C            0.83481834835530        0.50097039843346       -0.01042436475504
C            2.29351664224793        0.15135460090630       -0.04435451877837
O            0.44394227337403        1.64743618560396        0.00955908029844
H           -3.22432941830038        0.55479353010787        0.12355750218440
H           -2.10578260447115        1.20928827184926       -1.09303900955262
H           -1.79408321079991        1.47877921907629        0.62591864812267
H           -1.99856313352499       -1.32386146818327       -0.07431122879342
H           -0.20824144515073       -2.61642311454021        0.00822744472471
H            2.82406857553807        0.74899169815359        0.69538571598513
H            2.68503770978353        0.42284287389997       -1.02489163224850
H            2.43648952997984       -0.90993572198195        0.12500618589152
15
 energy: -22.530412503900 gnorm: 0.003064477026 xtb: 6.7.0 (08769fc)
C           -2.17593536279808        0.76112546461409       -0.09285946381647
N           -1.44389633045065       -0.48309346003727       -0.03370520373546
C           -0.10385320797296       -0.68508416879152       -0.01862163299173
N            0.44828064436033       -1.83717216266985        0.00866058116738
C            0.83170131079073        0.49946738007717       -0.01371469833220
C            2.29191072800680        0.15192905383045       -0.04292400573491
O            0.44233596311407        1.64643434554396        0.00161194474176
H           -3.22601968195968        0.55460623325265        0.10779209096924
H           -2.08647139528431        1.22952136248923       -1.07808548214400
H           -1.80118441529068        1.46535778225532        0.65036800647842
H           -2.00102649242209       -1.32493324973739       -0.07695446403601
H           -0.20435377158125       -2.61954699191979        0.00511699633770
H            2.82390902508129        0.77144217677420        0.67760376436687
H            2.67697931334216        0.39718492079932       -1.03346581315711
H            2.43872470706427       -0.90448658118055        0.15262120288650
15
 energy: -22.530469457564 gnorm: 0.005116114799 xtb: 6.7.0 (08769fc)
C           -2.17183207203178        0.76267035850213       -0.08482666494738
N           -1.44580080217996       -0.48557292394185       -0.04511409013677
C           -0.10630191228032       -0.68828218130351       -0.02407149862402
N            0.44981908386158       -1.83785823874296        0.00367389938003
C            0.82719208308965        0.49776062247605       -0.01815533126982
C            2.28924534393969        0.15335189990659       -0.04100976722083
O            0.43848739952277        1.64480323541547       -0.00974485848165
H           -3.22923430188554        0.55422330130070        0.07659003139191
H           -2.04957598953392        1.26343858764611       -1.05140552624594
H           -1.81730307169788        1.44205584535206        0.69312859778952
H           -2.00480285706032       -1.32653450306682       -0.08031449808438
H           -0.19866771045087       -2.62395391557089       -0.00168462243990
H            2.82544657730128        0.80994417522506        0.64406128208166
H            2.66259598603548        0.35034796524315       -1.04855736394868
H            2.44183327737011       -0.89364212314127        0.20087423375622
15
 energy: -22.530524531616 gnorm: 0.007060870081 xtb: 6.7.0 (08769fc)
C           -2.16697717921626        0.76398064334940       -0.07633819291912
N           -1.44785693664547       -0.48809864265856       -0.05138105960535
C           -0.10875061934225       -0.69189404646424       -0.02878125599565
N            0.45127418304961       -1.83916230893124       -0.00318242832822
C            0.82264769174840        0.49645038006545       -0.02159015220658
C            2.28597840841898        0.15554140882332       -0.04012437739052
O            0.43297809124765        1.64284676539133       -0.01780308043025
H           -3.23194592449848        0.55658070240220        0.03779492040662
H           -2.00464145904816        1.29585600941429       -1.02143463504190
H           -1.83830710956058        1.41694355756880        0.73727239542237
H           -2.00880608018693       -1.32779590624587       -0.08275145199678
H           -0.19349982065230       -2.62833518051190       -0.00966246857362
H            2.82774549951933        0.84832755686157        0.60478735634003
H            2.64590651455857        0.30038890284797       -1.06288758287231
H            2.44535577460783       -0.87887773661250        0.24952583619126
15
 energy: -22.530614836366 gnorm: 0.004687731697 xtb: 6.7.0 (08769fc)
C           -2.16464254420986        0.76407559776698       -0.07266821428250
N           -1.44872001678096       -0.48874752391061       -0.04442366274629
C           -0.10954806204794       -0.69344269840353       -0.02949855902504
N            0.45228481190704       -1.83996280980712       -0.00996340937273
C            0.82154772483608        0.49721842111307       -0.02064868493418
C            2.28428156100632        0.15741158833385       -0.04148388641123
O            0.42903126971978        1.64218002571342       -0.01446327700802
H           -3.23206108003785        0.56150502763557        0.01080765734260
H           -1.97586712224431        1.30494972201962       -1.00469512378832
H           -1.85640438896454        1.40499062913797        0.75522053864393
H           -2.01033036001063       -1.32794118389182       -0.08150921875290
H           -0.19193353551865       -2.62907063038915       -0.01568449335329
H            2.83070314845243        0.86204485730567        0.57992966972993
H            2.63636424936977        0.27454545733048       -1.06713393452907
H            2.44639537852327       -0.86700437465438        0.26965842148709
15
 energy: -22.530693340490 gnorm: 0.008191322716 xtb: 6.7.0 (08769fc)
C           -2.16243531783963        0.76494241224335       -0.06341514052600
N           -1.44713522844560       -0.48938154187125       -0.05141965221153
C           -0.10785637079517       -0.69416021631376       -0.03470060056880
N            0.45506055159443       -1.84037813181645       -0.02224541746288
C            0.82211443567076        0.50022346008526       -0.02051795316856
C            2.28271194232525        0.15954206065928       -0.04179260407342
O            0.42267984272254        1.64251877451714       -0.01347412528961
H           -3.23351624632988        0.55858467300979       -0.04506103145565
H           -1.92369595412596        1.34511191042053       -0.96192003795375
H           -1.90111445385796        1.37270871544559        0.80866030883543
H           -2.01044867794749       -1.32935339135727       -0.07998130902455
H           -0.19104436189400       -2.62713504165509       -0.03392704381210
H            2.84251692346848        0.91075180082227        0.51737421217189
H            2.61669364851213        0.19391743296703       -1.08548651627906
H            2.44657030094204       -0.84514081185640        0.34135073381858
15
 energy: -22.530776221879 gnorm: 0.004292595173 xtb: 6.7.0 (08769fc)
C           -2.16740255076810        0.76420339229915       -0.06732146779069
N           -1.44299204709918       -0.48636482307639       -0.05065044900444
C           -0.10308380653709       -0.68953314730605       -0.03224983448657
N            0.45475585563404       -1.83895117241884       -0.02172206131483
C            0.82874653192889        0.50405788123102       -0.01605937929039
C            2.28607009247475        0.15798448809182       -0.04393727048764
O            0.42578591292306        1.64538366277600        0.00009901328290
H           -3.23196130046991        0.54965135246110       -0.04455925080413
H           -1.93791352464263        1.34032984356725       -0.96477351838896
H           -1.91354900729183        1.37731074061286        0.79885719610418
H           -2.00471257062416       -1.32821570920231       -0.07648199015353
H           -0.19803254454261       -2.61966644625779       -0.03647390840660
H            2.85090964553710        0.90194417314498        0.51401486755268
H            2.62054675381277        0.19031693779315       -1.08268928730921
H            2.44393359366481       -0.84569906841593        0.33739116349722
15
 energy: -22.530840488223 gnorm: 0.004686356825 xtb: 6.7.0 (08769fc)
C           -2.16815218108805        0.76441767729610       -0.06617512010840
N           -1.44103479149538       -0.48477382685125       -0.04990534891115
C           -0.10060343776184       -0.68714288744440       -0.03000491733367
N            0.45426662797854       -1.83848801620341       -0.02320593074022
C            0.83093521974947        0.50614368022079       -0.01070323104791
C            2.28625433136283        0.15831748739873       -0.04830053003269
O            0.42546948796375        1.64649866186714        0.01797757696969
H           -3.23462699399626        0.54126446806492       -0.08588543706922
H           -1.90800948796891        1.36052638540142       -0.94478559705636
H           -1.94574624093002        1.36081468681387        0.82458886803089
H           -2.00166831775192       -1.32605780036543       -0.07506810599965
H           -0.20183621346453       -2.61620867123724       -0.04087050241008
H            2.86360038362215        0.91809300894122        0.47547208224281
H            2.60536533026520        0.15124085292604       -1.09125557258338
H            2.44688731751491       -0.83189360152849        0.36156558904930
15
 energy: -22.530881042821 gnorm: 0.008189680119 xtb: 6.7.0 (08769fc)
C           -2.16826839017235        0.76434951905282       -0.06478223607302
N           -1.43903941511753       -0.48361204871323       -0.05029700004945
C           -0.09826258202352       -0.68497893565818       -0.03016872319358
N            0.45421925970859       -1.83800551453466       -0.02854679061027
C            0.83139140832128        0.50769355776003       -0.00045827745737
C            2.28544072387686        0.15956907665885       -0.05239455019671
O            0.42406998214476        1.64714335682399        0.04819786761398
H           -3.23392336402898        0.53892149442688       -0.13083351648099
H           -1.87608887499322        1.38154561695440       -0.92033817084080
H           -1.97722146589765        1.33949967736433        0.84697046553232
H           -1.99880696650965       -1.32375199835000       -0.07270805072407
H           -0.20394932535674       -2.61407842745084       -0.05281607488810
H            2.87775324513404        0.94498098881557        0.42418139003188
H            2.58028771307370        0.09646495467453       -1.10482918773710
H            2.45349908584034       -0.81298921252447        0.40226667807327
15
 energy: -22.530972625219 gnorm: 0.005792459730 xtb: 6.7.0 (08769fc)
C           -2.16843312079944        0.76433783281379       -0.06944016167377
N           -1.43873046315184       -0.48256979278127       -0.04925703050028
C           -0.09808033959857       -0.68340983059099       -0.02851217516062
N            0.45351405707765       -1.83713805309925       -0.02451559286675
C            0.82937802749410        0.50639849233454        0.01034562809976
C            2.28456325178756        0.15969760091522       -0.05758910382434
O            0.42610996313030        1.64677375357466        0.08181746470319
H           -3.23192078886515        0.54071173717383       -0.14442973905923
H           -1.87192599022461        1.38176068597529       -0.92186365621777
H           -1.97988035910838        1.33619302554635        0.83957163994915
H           -1.99703290491323       -1.32151010639919       -0.07134516582183
H           -0.20324316033960       -2.61513032682741       -0.05046777755117
H            2.88155050039871        0.94313272573532        0.40914942399977
H            2.56344444123321        0.09054099760672       -1.10955350055281
H            2.46178791987923       -0.80703663667758        0.39953356947668
15
 energy: -22.531092673306 gnorm: 0.006719822740 xtb: 6.7.0 (08769fc)
C           -2.16932038465287        0.76595923652588       -0.07584196901690
N           -1.43629741067328       -0.47988026899444       -0.06017761874116
C           -0.09618952838842       -0.68042504051121       -0.02838917039273
N            0.45661034706220       -1.83387505135315       -0.01918730222059
C            0.82931801754220        0.50745560308445        0.02944901348188
C            2.28405868653608        0.15898727467697       -0.06751162051230
O            0.42965969718539        1.64727746238973        0.14116810487865
H           -3.22751034439026        0.53915626740971       -0.18729124191712
H           -1.85141040436886        1.40034290589038       -0.90807554653752
H           -2.01222006789039        1.32168868930947        0.85214190116701
H           -1.99337927512844       -1.32146050633931       -0.06782082798859
H           -0.19964496804145       -2.61297106521679       -0.04990179611257
H            2.89284211543132        0.95525294295455        0.35749681486790
H            2.53232810500232        0.04617825747935       -1.12361316807413
H            2.47225644877441       -0.79093460200560        0.42099825011817
15
 energy: -22.531200253721 gnorm: 0.012687453770 xtb: 6.7.0 (08769fc)
C           -2.16843575422344        0.76889866049234       -0.08742032845926
N           -1.43520290882982       -0.47721674291098       -0.07804381185792
C           -0.09547537420031       -0.67843618845046       -0.01934308616955
N            0.46092408410135       -1.82902645272590       -0.00690476136172
C            0.82926149675481        0.50690380811230        0.06966447790004
C            2.28243478823164        0.15846886723851       -0.08558887394151
O            0.43660136552933        1.64288753102187        0.25054235452945
H           -3.21943836971742        0.54310262434000       -0.25675367998985
H           -1.81420942384455        1.42348418157402       -0.88788354789430
H           -2.05986792419802        1.30210469527778        0.86420499026979
H           -1.99115311877116       -1.32180428838196       -0.06726833708079
H           -0.19242391179668       -2.61094977355304       -0.05061451370480
H            2.91026582043514        0.97966922555562        0.26780914886284
H            2.47604832240855       -0.02035019675115       -1.14751323872956
H            2.49177194212052       -0.76498384553894        0.44855703062713
15
 energy: -22.531358584130 gnorm: 0.003190630750 xtb: 6.7.0 (08769fc)
C           -2.16511335081921        0.76840917586746       -0.08869969673705
N           -1.43666037359272       -0.47960293541887       -0.07859215007174
C           -0.09780181924352       -0.68217355570342       -0.01093976052990
N            0.45832508581402       -1.83255706281055       -0.00030584833338
C            0.82908249392108        0.50426885526427        0.07305360865506
C            2.28015443313279        0.16203137056132       -0.08788727003943
O            0.43517833071274        1.63484738243404        0.25719861697072
H           -3.21693198332299        0.55185197872935       -0.26254910726850
H           -1.80100344113114        1.42458036939687       -0.88138177829647
H           -2.05942170962962        1.29770884162446        0.86213824318278
H           -1.99533927109650       -1.32197153687791       -0.07579536504619
H           -0.19416477934197       -2.61346751694178       -0.04757925876655
H            2.90245313219216        0.98522115925228        0.25633180308219
H            2.47237975166352       -0.01812176315611       -1.14538482508720
H            2.49996453474131       -0.75827265692140        0.44383661128567
15
 energy: -22.531399372496 gnorm: 0.001768803819 xtb: 6.7.0 (08769fc)
C           -2.16104860531015        0.76865035935235       -0.09023145070747
N           -1.43724420109755       -0.48171496826994       -0.08166501186879
C           -0.09916062251365       -0.68545536323250       -0.00599636473258
N            0.45745337994847       -1.83537520018438        0.00747060857181
C            0.82827492598529        0.50288925558617        0.08031963062320
C            2.27731246599960        0.16433536284456       -0.09167673688655
O            0.43282818503287        1.63067615843977        0.26958004913005
H           -3.21296347348614        0.55867593453312       -0.27086999695193
H           -1.78864423301897        1.42708712635656       -0.87653125287829
H           -2.05928431478325        1.29284665795519        0.86278231281519
H           -1.99864404182832       -1.32207548938016       -0.08624227772144
H           -0.19395952498850       -2.61652879906270       -0.03970869307057
H            2.89668784007676        0.99068048340730        0.24482791260526
H            2.46379841833782       -0.01829258661260       -1.14827368251665
H            2.50569483564569       -0.75364682643275        0.43965877658877
15
 energy: -22.531450649816 gnorm: 0.003276043408 xtb: 6.7.0 (08769fc)
C           -2.15472658244601        0.76924830513800       -0.09342782119637
N           -1.43795192317661       -0.48502958587550       -0.08829187892660
C           -0.10119985557723       -0.69005550248002        0.00286201871535
N            0.45750936606396       -1.83850135671566        0.02474223404992
C            0.82638916974103        0.50184665244105        0.09025791099134
C            2.27243981702003        0.16767604493888       -0.10003541450840
O            0.42997923876320        1.62525320443174        0.29904233166506
H           -3.20582825031265        0.56875863450058       -0.28966334668270
H           -1.76773711904066        1.43362612930519       -0.86750233608499
H           -2.06232789236896        1.28259246952431        0.86606810042270
H           -2.00363695935425       -1.32222968488302       -0.10584057608972
H           -0.19127748618891       -2.62134085654441       -0.02412124020066
H            2.89087129324987        0.99905257954978        0.22313467890395
H            2.44604694240038       -0.02186808401267       -1.15694051612472
H            2.51255127522678       -0.74627684401825        0.43315967806585
15
 energy: -22.531510419072 gnorm: 0.003067265217 xtb: 6.7.0 (08769fc)
C           -2.15045583811538        0.76988538797553       -0.09812330220046