      -----------------------------------------------------------      
     |                   =====================                   |     
     |                           x T B                           |     
     |                   =====================                   |     
     |                         S. Grimme                         |     
     |          Mulliken Center for Theoretical Chemistry        |     
     |                    University of Bonn                     |     
      -----------------------------------------------------------      

   * xtb version 6.7.0 (08769fc) compiled by 'albert@albert-system' on 2024-03-04

   xtb is free software: you can redistribute it and/or modify it under
   the terms of the GNU Lesser General Public License as published by
   the Free Software Foundation, either version 3 of the License, or
   (at your option) any later version.
   
   xtb is distributed in the hope that it will be useful,
   but WITHOUT ANY WARRANTY; without even the implied warranty of
   MERCHANTABILITY or FITNESS FOR A PARTICULAR PURPOSE.  See the
   GNU Lesser General Public License for more details.
   
   Cite this work as:
   * C. Bannwarth, E. Caldeweyher, S. Ehlert, A. Hansen, P. Pracht,
     J. Seibert, S. Spicher, S. Grimme, WIREs Comput. Mol. Sci., 2020, 11,
     e01493. DOI: 10.1002/wcms.1493
   
   for GFN2-xTB:
   * C. Bannwarth, S. Ehlert and S. Grimme., J. Chem. Theory Comput., 2019,
     15, 1652-1671. DOI: 10.1021/acs.jctc.8b01176
   for GFN1-xTB:
   * S. Grimme, C. Bannwarth, P. Shushkov, J. Chem. Theory Comput., 2017,
     13, 1989-2009. DOI: 10.1021/acs.jctc.7b00118
   for GFN0-xTB:
   * P. Pracht, E. Caldeweyher, S. Ehlert, S. Grimme, ChemRxiv, 2019, preprint.
     DOI: 10.26434/chemrxiv.8326202.v1
   for GFN-FF:
   * S. Spicher and S. Grimme, Angew. Chem. Int. Ed., 2020, 59, 15665-15673.
     DOI: 10.1002/anie.202004239
   
   for ALPB and GBSA implicit solvation:
   * S. Ehlert, M. Stahn, S. Spicher, S. Grimme, J. Chem. Theory Comput.,
     2021, 17, 4250-4261. DOI: 10.1021/acs.jctc.1c00471
   
   for ddCOSMO and CPCM-X implicit solvation:
   * M. Stahn, S. Ehlert, S. Grimme, J. Phys. Chem. A,
     2023, XX, XXXX-XXXX. DOI: 10.1021/acs.jpca.3c04382
   
   for DFT-D4:
   * E. Caldeweyher, C. Bannwarth and S. Grimme, J. Chem. Phys., 2017,
     147, 034112. DOI: 10.1063/1.4993215
   * E. Caldeweyher, S. Ehlert, A. Hansen, H. Neugebauer, S. Spicher,
     C. Bannwarth and S. Grimme, J. Chem. Phys., 2019, 150, 154122.
     DOI: 10.1063/1.5090222
   * E. Caldeweyher, J.-M. Mewes, S. Ehlert and S. Grimme, Phys. Chem. Chem. Phys.
     2020, 22, 8499-8512. DOI: 10.1039/D0CP00502A
   
   for sTDA-xTB:
   * S. Grimme and C. Bannwarth, J. Chem. Phys., 2016, 145, 054103.
     DOI: 10.1063/1.4959605
   
   in the mass-spec context:
   * V. Asgeirsson, C. Bauer and S. Grimme, Chem. Sci., 2017, 8, 4879.
     DOI: 10.1039/c7sc00601b
   * J. Koopman and S. Grimme, ACS Omega 2019, 4, 12, 15120-15133.
     DOI: 10.1021/acsomega.9b02011
   
   for metadynamics refer to:
   * S. Grimme, J. Chem. Theory Comput., 2019, 155, 2847-2862
     DOI: 10.1021/acs.jctc.9b00143
   
   for SPH calculations refer to:
   * S. Spicher and S. Grimme, J. Chem. Theory Comput., 2021, 17, 1701-1714
     DOI: 10.1021/acs.jctc.0c01306
   
   for ONIOM refer to:
   * C. Plett, A. Katbashev, S. Ehlert, S. Grimme, M. Bursch,
     Phys. Chem. Chem. Phys., 2023, 25, 17860-17868. DOI: 10.1039/D3CP02178E
   
   for DIPRO refer to:
   * J. Kohn, N. Gildemeister, S. Grimme, D. Fazzi, A. Hansen,
     J. Chem. Phys., 2023, just accepted.
   
   for PTB refer to:
   * S. Grimme, M. Mueller, A. Hansen, J. Chem. Phys., 2023, 158, 124111.
     DOI: 10.1063/5.0137838
   
   with help from (in alphabetical order)
   P. Atkinson, C. Bannwarth, F. Bohle, G. Brandenburg, E. Caldeweyher
   M. Checinski, S. Dohm, S. Ehlert, S. Ehrlich, I. Gerasimov, C. Hölzer
   A. Katbashev, J. Kohn, J. Koopman, C. Lavigne, S. Lehtola, F. März, M. Müller,
   F. Musil, H. Neugebauer, J. Pisarek, C. Plett, P. Pracht, F. Pultar,
   J. Seibert, P. Shushkov, S. Spicher, M. Stahn, M. Steiner, T. Strunk,
   J. Stückrath, T. Rose, and J. Unsleber
   
 * started run on 2024/08/07 at 19:40:00.079     
   ID    Z sym.   atoms
    1    6 C      1-3, 5, 6
    2    7 N      4
    3    1 H      7-11

           -------------------------------------------------
          |                Calculation Setup                |
           -------------------------------------------------

          program call               : /home/mvotokps/xtb-dist/bin/xtb crest_best.xyz --gfn 2 --alpb toluene --opt vtight -c 0 --iterations 4000
          coordinate file            : crest_best.xyz
          omp threads                :                     8


           -------------------------------------------------
          |                 G F N 2 - x T B                 |
           -------------------------------------------------

        Reference                      10.1021/acs.jctc.8b01176
      * Hamiltonian:
        H0-scaling (s, p, d)           1.850000    2.230000    2.230000
        zeta-weighting                 0.500000
      * Dispersion:
        s8                             2.700000
        a1                             0.520000
        a2                             5.000000
        s9                             5.000000
      * Repulsion:
        kExp                           1.500000    1.000000
        rExp                           1.000000
      * Coulomb:
        alpha                          2.000000
        third order                    shell-resolved
        anisotropic                    true
        a3                             3.000000
        a5                             4.000000
        cn-shift                       1.200000
        cn-exp                         4.000000
        max-rad                        5.000000

      * Solvation model:               ALPB
        Solvent                        toluene
        Parameter file                 internal GFN2-xTB/ALPB
        Dielectric constant                7.0000E+00
        Reference state                gsolv [1 M gas/solution]
        Free energy shift                  2.2081E-03 Eh       1.3856E+00 kcal/mol
        Temperature                        2.9815E+02 K
        Density                            8.6700E-01 kg/L
        Solvent mass                       7.8110E+01 g/mol
        Interaction kernel             P16
        Born radius scaling (c1)           1.7172E+00
        Born radii integrator          GBOBC
        Born offset                        0.0000E+00 a0       0.0000E+00 AA
        H-bond correction              false
        Ion screening                  false
        Surface tension                    1.0000E-05 Eh       1.5569E+01 dyn/cm
        Grid points                               230 per atom

          ...................................................
          :                      SETUP                      :
          :.................................................:
          :  # basis functions                  29          :
          :  # atomic orbitals                  29          :
          :  # shells                           17          :
          :  # electrons                        30          :
          :  max. iterations                  4000          :
          :  Hamiltonian                  GFN2-xTB          :
          :  restarted?                      false          :
          :  GBSA solvation                   true          :
          :  PC potential                    false          :
          :  electronic temp.          300.0000000     K    :
          :  accuracy                    1.0000000          :
          :  -> integral cutoff          0.2500000E+02      :
          :  -> integral neglect         0.1000000E-07      :
          :  -> SCF convergence          0.1000000E-05 Eh   :
          :  -> wf. convergence          0.1000000E-03 e    :
          :  Broyden damping             0.4000000          :
          :  net charge                          0          :
          :  unpaired electrons                  0          :
          ...................................................

 iter      E             dE          RMSdq      gap      omega  full diag
   1    -16.4409214 -0.164409E+02  0.492E+00    3.75       0.0  T
   2    -16.4512113 -0.102900E-01  0.300E+00    3.53       1.0  T
   3    -16.4485334  0.267790E-02  0.835E-01    3.39       1.0  T
   4    -16.4523438 -0.381035E-02  0.249E-01    3.26       1.0  T
   5    -16.4527571 -0.413330E-03  0.622E-02    3.29       1.0  T
   6    -16.4527752 -0.180537E-04  0.262E-02    3.29       1.1  T
   7    -16.4527750  0.144068E-06  0.120E-02    3.29       2.5  T
   8    -16.4527757 -0.648600E-06  0.201E-03    3.29      15.0  T
   9    -16.4527757 -0.274524E-08  0.731E-04    3.29      41.2  T
  10    -16.4527757 -0.334382E-08  0.124E-04    3.29     244.1  T

   *** convergence criteria satisfied after 10 iterations ***

         #    Occupation            Energy/Eh            Energy/eV
      -------------------------------------------------------------
         1        2.0000           -0.6662231             -18.1289
       ...           ...                  ...                  ...
         9        2.0000           -0.5058961             -13.7661
        10        2.0000           -0.4876897             -13.2707
        11        2.0000           -0.4731695             -12.8756
        12        2.0000           -0.4403799             -11.9833
        13        2.0000           -0.4379054             -11.9160
        14        2.0000           -0.4202420             -11.4354
        15        2.0000           -0.3713024             -10.1037 (HOMO)
        16                         -0.2503748              -6.8130 (LUMO)
        17                         -0.2355234              -6.4089
        18                         -0.1074497              -2.9239
        19                          0.1178127               3.2058
        20                          0.1355961               3.6898
       ...                                ...                  ...
        29                          0.6381372              17.3646
      -------------------------------------------------------------
                  HL-Gap            0.1209276 Eh            3.2906 eV
             Fermi-level           -0.3108386 Eh           -8.4583 eV

 SCC (total)                   0 d,  0 h,  0 min,  0.116 sec
 SCC setup                      ...        0 min,  0.000 sec (  0.311%)
 Dispersion                     ...        0 min,  0.000 sec (  0.074%)
 classical contributions        ...        0 min,  0.000 sec (  0.017%)
 integral evaluation            ...        0 min,  0.000 sec (  0.427%)
 iterations                     ...        0 min,  0.113 sec ( 97.372%)
 molecular gradient             ...        0 min,  0.002 sec (  1.638%)
 printout                       ...        0 min,  0.000 sec (  0.118%)

         :::::::::::::::::::::::::::::::::::::::::::::::::::::
         ::                     SUMMARY                     ::
         :::::::::::::::::::::::::::::::::::::::::::::::::::::
         :: total energy             -16.155780023084 Eh    ::
         :: total w/o Gsasa/hb       -16.149398728466 Eh    ::
         :: gradient norm              0.025154784535 Eh/a0 ::
         :: HOMO-LUMO gap              3.290607367569 eV    ::
         ::.................................................::
         :: SCC energy               -16.452771410025 Eh    ::
         :: -> isotropic ES            0.007338052070 Eh    ::
         :: -> anisotropic ES          0.002430551949 Eh    ::
         :: -> anisotropic XC          0.016153707496 Eh    ::
         :: -> dispersion             -0.007267451992 Eh    ::
         :: -> Gsolv                  -0.006699214742 Eh    ::
         ::    -> Gelec               -0.000317920124 Eh    ::
         ::    -> Gsasa               -0.008589437757 Eh    ::
         ::    -> Ghb                  0.000000000000 Eh    ::
         ::    -> Gshift               0.002208143139 Eh    ::
         :: repulsion energy           0.296991386941 Eh    ::
         :: add. restraining           0.000000000000 Eh    ::
         :: total charge               0.000000000000 e     ::
         :::::::::::::::::::::::::::::::::::::::::::::::::::::

      ----------------------------------------------------------- 
     |                   =====================                   |
     |                        A N C O P T                        |
     |                   =====================                   |
     |               Approximate Normal Coordinate               |
     |                Rational Function Optimizer                |
      ----------------------------------------------------------- 
      ----------------------------------------------------------- 
     |                   =====================                   |
     |                        A N C O P T                        |
     |                   =====================                   |
     |               Approximate Normal Coordinate               |
     |                Rational Function Optimizer                |
      ----------------------------------------------------------- 

          ...................................................
          :                      SETUP                      :
          :.................................................:
          :   optimization level         verytight          :
          :   max. optcycles                   220          :
          :   ANC micro-cycles                  20          :
          :   degrees of freedom                27          :
          :.................................................:
          :   RF solver                   davidson          :
          :   write xtbopt.log                true          :
          :   linear?                        false          :
          :   energy convergence         0.1000000E-06 Eh   :
          :   grad. convergence          0.2000000E-03 Eh/α :
          :   maxmium RF displ.          1.0000000          :
          :   Hlow (freq-cutoff)         0.1000000E-01      :
          :   Hmax (freq-cutoff)         5.0000000          :
          :   S6 in model hess.         20.0000000          :
          ...................................................

generating ANC from model Hessian ...
Using Lindh-Hessian (1995)
 Shifting diagonal of input Hessian by   0.000000000000000E+000
 Lowest  eigenvalues of input Hessian
    0.000000    0.000000    0.000000    0.000000    0.000000    0.000000
    0.016849    0.021410    0.026785    0.059709    0.071677    0.103789
    0.103838    0.108733    0.117905    0.145083    0.145114    0.160956
 Highest eigenvalues
    1.426709    1.574500    1.661801    1.992867    2.116425    2.149959
 

........................................................................
.............................. CYCLE    1 ..............................
........................................................................

 iter      E             dE          RMSdq      gap      omega  full diag
   1    -16.4527757 -0.164528E+02  0.720E-06    3.29       0.0  T
   2    -16.4527757 -0.284217E-13  0.415E-06    3.29    7260.9  T
   3    -16.4527757  0.177636E-13  0.191E-06    3.29   15800.0  T
     SCC iter.                  ...        0 min,  0.102 sec
     gradient                   ...        0 min,  0.001 sec
 * total energy  :   -16.1557800 Eh     change       -0.1256950E-10 Eh
   gradient norm :     0.0251546 Eh/α   predicted     0.0000000E+00 (-100.00%)
   displ. norm   :     0.0851452 α      lambda       -0.1488641E-02
   maximum displ.:     0.0508067 α      in ANC's #13, #9, #14, ...

........................................................................
.............................. CYCLE    2 ..............................
........................................................................

 iter      E             dE          RMSdq      gap      omega  full diag
   1    -16.4423150 -0.164423E+02  0.138E-01    3.23       0.0  T
   2    -16.4423167 -0.169470E-05  0.826E-02    3.24       1.0  T
   3    -16.4423150  0.171645E-05  0.149E-02    3.24       2.0  T
   4    -16.4423173 -0.227102E-05  0.327E-03    3.24       9.2  T
   5    -16.4423173 -0.147720E-07  0.982E-04    3.24      30.7  T
   6    -16.4423173  0.327034E-09  0.377E-04    3.24      79.9  T
     SCC iter.                  ...        0 min,  0.114 sec
     gradient                   ...        0 min,  0.001 sec
 * total energy  :   -16.1566924 Eh     change       -0.9123632E-03 Eh
   gradient norm :     0.0077949 Eh/α   predicted    -0.7497159E-03 ( -17.83%)
   displ. norm   :     0.0376625 α      lambda       -0.1823358E-03
   maximum displ.:     0.0234275 α      in ANC's #9, #13, #6, ...

........................................................................
.............................. CYCLE    3 ..............................
........................................................................

 iter      E             dE          RMSdq      gap      omega  full diag
   1    -16.4405230 -0.164405E+02  0.568E-02    3.22       0.0  T
   2    -16.4405232 -0.196894E-06  0.335E-02    3.22       1.0  T
   3    -16.4405231  0.170878E-06  0.499E-03    3.22       6.0  T
   4    -16.4405233 -0.237010E-06  0.114E-03    3.22      26.5  T
   5    -16.4405233 -0.137630E-08  0.416E-04    3.22      72.5  T
   6    -16.4405233 -0.213436E-09  0.144E-04    3.22     209.7  T
     SCC iter.                  ...        0 min,  0.169 sec
     gradient                   ...        0 min,  0.012 sec
 * total energy  :   -16.1568034 Eh     change       -0.1110396E-03 Eh
   gradient norm :     0.0030877 Eh/α   predicted    -0.9129470E-04 ( -17.78%)
   displ. norm   :     0.0158133 α      lambda       -0.2753579E-04
   maximum displ.:     0.0095686 α      in ANC's #6, #13, #9, ...

........................................................................
.............................. CYCLE    4 ..............................
........................................................................

 iter      E             dE          RMSdq      gap      omega  full diag
   1    -16.4410319 -0.164410E+02  0.212E-02    3.22       0.0  T
   2    -16.4410319 -0.278256E-07  0.123E-02    3.22       2.5  T
   3    -16.4410319  0.699465E-08  0.163E-03    3.22      18.4  T
   4    -16.4410319 -0.127078E-07  0.394E-04    3.22      76.5  T
   5    -16.4410319 -0.512500E-09  0.270E-04    3.22     111.7  T
     SCC iter.                  ...        0 min,  0.108 sec
     gradient                   ...        0 min,  0.003 sec
 * total energy  :   -16.1568205 Eh     change       -0.1711651E-04 Eh
   gradient norm :     0.0013006 Eh/α   predicted    -0.1377198E-04 ( -19.54%)
   displ. norm   :     0.0091447 α      lambda       -0.4267114E-05
   maximum displ.:     0.0072655 α      in ANC's #6, #14, #16, ...

........................................................................
.............................. CYCLE    5 ..............................
........................................................................

 iter      E             dE          RMSdq      gap      omega  full diag
   1    -16.4417759 -0.164418E+02  0.113E-02    3.22       0.0  T
   2    -16.4417760 -0.264363E-07  0.674E-03    3.22       4.5  T
   3    -16.4417759  0.281834E-07  0.195E-03    3.22      15.4  T
   4    -16.4417760 -0.353113E-07  0.309E-04    3.22      97.6  T
   5    -16.4417760 -0.613181E-09  0.151E-04    3.22     199.8  T
     SCC iter.                  ...        0 min,  0.103 sec
     gradient                   ...        0 min,  0.003 sec
 * total energy  :   -16.1568229 Eh     change       -0.2321830E-05 Eh
   gradient norm :     0.0006346 Eh/α   predicted    -0.2134750E-05 (  -8.06%)
   displ. norm   :     0.0021546 α      lambda       -0.4469507E-06
   maximum displ.:     0.0010220 α      in ANC's #13, #9, #16, ...

........................................................................
.............................. CYCLE    6 ..............................
........................................................................

 iter      E             dE          RMSdq      gap      omega  full diag
   1    -16.4416145 -0.164416E+02  0.352E-03    3.22       0.0  T
   2    -16.4416145 -0.392042E-09  0.206E-03    3.22      14.7  T
   3    -16.4416145 -0.618670E-10  0.142E-04    3.22     211.6  T
   4    -16.4416145 -0.684892E-10  0.608E-05    3.22     496.2  T
     SCC iter.                  ...        0 min,  0.140 sec
     gradient                   ...        0 min,  0.004 sec
 * total energy  :   -16.1568232 Eh     change       -0.3439800E-06 Eh
   gradient norm :     0.0001151 Eh/α   predicted    -0.2220240E-06 ( -35.45%)
   displ. norm   :     0.0004441 α      lambda       -0.1792107E-07
   maximum displ.:     0.0003133 α      in ANC's #6, #9, #13, ...

........................................................................
.............................. CYCLE    7 ..............................
........................................................................

 iter      E             dE          RMSdq      gap      omega  full diag
   1    -16.4415793 -0.164416E+02  0.665E-04    3.22       0.0  T
   2    -16.4415793 -0.361631E-10  0.387E-04    3.22      77.8  T
   3    -16.4415793  0.283222E-10  0.659E-05    3.22     457.3  T
     SCC iter.                  ...        0 min,  0.127 sec
     gradient                   ...        0 min,  0.006 sec
 * total energy  :   -16.1568232 Eh     change       -0.1182849E-07 Eh
   gradient norm :     0.0000235 Eh/α   predicted    -0.7619063E-08 ( -35.59%)
   displ. norm   :     0.0001699 α      lambda       -0.1123491E-08
   maximum displ.:     0.0001183 α      in ANC's #6, #5, #1, ...

   *** GEOMETRY OPTIMIZATION CONVERGED AFTER 7 ITERATIONS ***

------------------------------------------------------------------------
 total energy gain   :        -0.0010432 Eh       -0.6546 kcal/mol
 total RMSD          :         0.0399538 a0        0.0211 Å
 total power (kW/mol):        -0.3912733 (step)   -2.9227 (real)
------------------------------------------------------------------------

 ANCopt (total)                0 d,  0 h,  0 min,  0.937 sec
 optimizer setup                ...        0 min,  0.000 sec (  0.013%)
 model hessian                  ...        0 min,  0.001 sec (  0.143%)
 ANC generation                 ...        0 min,  0.000 sec (  0.036%)
 coordinate transformation      ...        0 min,  0.000 sec (  0.009%)
 single point calculation       ...        0 min,  0.931 sec ( 99.339%)
 optimization log               ...        0 min,  0.001 sec (  0.082%)
 hessian update                 ...        0 min,  0.002 sec (  0.251%)
 rational function              ...        0 min,  0.001 sec (  0.075%)

================
 final structure:
================
11
 xtb: 6.7.0 (08769fc)
C            1.40799941675114       -0.00010925143395       -0.00000211545362
C            0.70104195100833        1.19235645240718        0.00000150784814
C           -0.68506404069683        1.13379573931544        0.00000893152369
N           -1.36631948907764        0.00010894034471        0.00000478847042
C           -0.68524229991171       -1.13368513800505       -0.00000465552583
C            0.70085446736085       -1.19246390518915       -0.00000376081192
H            2.48901795387455       -0.00019410616101       -0.00000665307766
H            1.21098723216428        2.14370934651827       -0.00001426186579
H           -1.28346758915217        2.03635806852935       -0.00001336687947
H           -1.28378903435658       -2.03615247420833        0.00003002414381
H            1.21065055023580       -2.14389672931745        0.00000955862822
 
 Bond Distances (Angstroems)
 ---------------------------
C1-C2=1.3863         C1-C6=1.3863         C1-H7=1.0810         C2-C1=1.3863         C2-C3=1.3873         C2-H8=1.0794         
C3-C2=1.3873         C3-N4=1.3226         C3-H9=1.0829         N4-C3=1.3226         N4-C5=1.3226         C5-N4=1.3226         
C5-C6=1.3873         C5-H10=1.0829        C6-C1=1.3863         C6-C5=1.3873         C6-H11=1.0794        H7-C1=1.0810         
H8-C2=1.0794         H9-C3=1.0829         H10-C5=1.0829        H11-C6=1.0794        
 C  H  Rav=1.0811 sigma=0.0016  Rmin=1.0794  Rmax=1.0829     5
 C  C  Rav=1.3868 sigma=0.0005  Rmin=1.3863  Rmax=1.3873     4
 N  C  Rav=1.3226 sigma=0.0000  Rmin=1.3226  Rmax=1.3226     2
 
 selected bond angles (degree)
 --------------------
C6-C1-C2=118.67                H7-C1-C2=120.67                H7-C1-C6=120.67                C3-C2-C1=118.24                
H8-C2-C1=121.15                H8-C2-C3=120.61                N4-C3-C2=123.42                H9-C3-C2=121.13                
H9-C3-N4=115.45                C5-N4-C3=118.00                C6-C5-N4=123.42                H10-C5-N4=115.45               
H10-C5-C6=121.13               C5-C6-C1=118.24                H11-C6-C1=121.15               H11-C6-C5=120.61               
 
 selected dihedral angles (degree)
 ---------------------------------
C3-C2-C1-C6=  0.00            C3-C2-C1-H7=180.00            H8-C2-C1-C6=180.00            H8-C2-C1-H7=  0.00            
N4-C3-C2-C1=  0.00            N4-C3-C2-H8=180.00            H9-C3-C2-C1=180.00            H9-C3-C2-H8=  0.00            
C5-N4-C3-C2=  0.00            C5-N4-C3-H9=180.00            C6-C5-N4-C3=  0.00            H10-C5-N4-C3=180.00           
C5-C6-C1-C2=  0.00            C5-C6-C1-H7=180.00            H11-C6-C1-C2=180.00           H11-C6-C1-H7=  0.00           
C1-C6-C5-N4=  0.00            C1-C6-C5-H10=180.00           H11-C6-C5-N4=180.00           H11-C6-C5-H10=  0.00          
           -------------------------------------------------
          |                Final Singlepoint                |
           -------------------------------------------------

          ...................................................
          :                      SETUP                      :
          :.................................................:
          :  # basis functions                  29          :
          :  # atomic orbitals                  29          :
          :  # shells                           17          :
          :  # electrons                        30          :
          :  max. iterations                  4000          :
          :  Hamiltonian                  GFN2-xTB          :
          :  restarted?                      false          :
          :  GBSA solvation                   true          :
          :  PC potential                    false          :
          :  electronic temp.          300.0000000     K    :
          :  accuracy                    1.0000000          :
          :  -> integral cutoff          0.2500000E+02      :
          :  -> integral neglect         0.1000000E-07      :
          :  -> SCF convergence          0.1000000E-05 Eh   :
          :  -> wf. convergence          0.1000000E-03 e    :
          :  Broyden damping             0.4000000          :
          :  net charge                          0          :
          :  unpaired electrons                  0          :
          ...................................................

 iter      E             dE          RMSdq      gap      omega  full diag
   1    -16.4415793 -0.164416E+02  0.119E-05    3.22       0.0  T
   2    -16.4415793 -0.341061E-12  0.654E-06    3.22    4609.8  T
   3    -16.4415793 -0.639488E-13  0.373E-06    3.22    8088.2  T

   *** convergence criteria satisfied after 3 iterations ***

         #    Occupation            Energy/Eh            Energy/eV
      -------------------------------------------------------------
         1        2.0000           -0.6631368             -18.0449
       ...           ...                  ...                  ...
         9        2.0000           -0.5059777             -13.7684
        10        2.0000           -0.4879942             -13.2790
        11        2.0000           -0.4717805             -12.8378
        12        2.0000           -0.4395945             -11.9620
        13        2.0000           -0.4377443             -11.9116
        14        2.0000           -0.4185677             -11.3898
        15        2.0000           -0.3682803             -10.0214 (HOMO)
        16                         -0.2499011              -6.8002 (LUMO)
        17                         -0.2380040              -6.4764
        18                         -0.1116752              -3.0388
        19                          0.1155767               3.1450
        20                          0.1263071               3.4370
       ...                                ...                  ...
        29                          0.6158724              16.7587
      -------------------------------------------------------------
                  HL-Gap            0.1183792 Eh            3.2213 eV
             Fermi-level           -0.3090907 Eh           -8.4108 eV

 SCC (total)                   0 d,  0 h,  0 min,  0.145 sec
 SCC setup                      ...        0 min,  0.000 sec (  0.177%)
 Dispersion                     ...        0 min,  0.000 sec (  0.264%)
 classical contributions        ...        0 min,  0.001 sec (  0.507%)
 integral evaluation            ...        0 min,  0.001 sec (  0.394%)
 iterations                     ...        0 min,  0.139 sec ( 96.173%)
 molecular gradient             ...        0 min,  0.003 sec (  2.374%)
 printout                       ...        0 min,  0.000 sec (  0.075%)

         :::::::::::::::::::::::::::::::::::::::::::::::::::::
         ::                     SUMMARY                     ::
         :::::::::::::::::::::::::::::::::::::::::::::::::::::
         :: total energy             -16.156823220090 Eh    ::
         :: total w/o Gsasa/hb       -16.150394353537 Eh    ::
         :: gradient norm              0.000023385288 Eh/a0 ::
         :: HOMO-LUMO gap              3.221261844324 eV    ::
         ::.................................................::
         :: SCC energy               -16.441574865945 Eh    ::
         :: -> isotropic ES            0.007481535747 Eh    ::
         :: -> anisotropic ES          0.002182576597 Eh    ::
         :: -> anisotropic XC          0.016703667606 Eh    ::
         :: -> dispersion             -0.007242202394 Eh    ::
         :: -> Gsolv                  -0.006740224276 Eh    ::
         ::    -> Gelec               -0.000311357723 Eh    ::
         ::    -> Gsasa               -0.008637009692 Eh    ::
         ::    -> Ghb                  0.000000000000 Eh    ::
         ::    -> Gshift               0.002208143139 Eh    ::
         :: repulsion energy           0.284751645855 Eh    ::
         :: add. restraining           0.000000000000 Eh    ::
         :: total charge              -0.000000000000 e     ::
         :::::::::::::::::::::::::::::::::::::::::::::::::::::

           -------------------------------------------------
          |                Property Printout                |
           -------------------------------------------------

    * Orbital Energies and Occupations

         #    Occupation            Energy/Eh            Energy/eV
      -------------------------------------------------------------
         1        2.0000           -0.6631368             -18.0449
       ...           ...                  ...                  ...
         3        2.0000           -0.6280998             -17.0915
         4        2.0000           -0.5907681             -16.0756
         5        2.0000           -0.5845136             -15.9054
         6        2.0000           -0.5405546             -14.7092
         7        2.0000           -0.5159404             -14.0395
         8        2.0000           -0.5065686             -13.7844
         9        2.0000           -0.5059777             -13.7684
        10        2.0000           -0.4879942             -13.2790
        11        2.0000           -0.4717805             -12.8378
        12        2.0000           -0.4395945             -11.9620
        13        2.0000           -0.4377443             -11.9116
        14        2.0000           -0.4185677             -11.3898
        15        2.0000           -0.3682803             -10.0214 (HOMO)
        16                         -0.2499011              -6.8002 (LUMO)
        17                         -0.2380040              -6.4764
        18                         -0.1116752              -3.0388
        19                          0.1155767               3.1450
        20                          0.1263071               3.4370
        21                          0.1571540               4.2764
        22                          0.1787769               4.8648
        23                          0.1800193               4.8986
        24                          0.2995392               8.1509
        25                          0.3879611              10.5570
        26                          0.4186148              11.3911
       ...                                ...                  ...
        29                          0.6158724              16.7587
      -------------------------------------------------------------
                  HL-Gap            0.1183792 Eh            3.2213 eV
             Fermi-level           -0.3090907 Eh           -8.4108 eV

     #   Z          covCN         q      C6AA      α(0)
     1   6 C        2.929    -0.010    28.267     8.719
     2   6 C        2.914    -0.038    28.937     8.821
     3   6 C        2.914     0.060    26.665     8.468
     4   7 N        1.835    -0.224    26.726     7.661
     5   6 C        2.914     0.060    26.665     8.468
     6   6 C        2.914    -0.038    28.937     8.821
     7   1 H        0.926     0.038     2.478     2.462
     8   1 H        0.926     0.038     2.474     2.460
     9   1 H        0.925     0.038     2.476     2.461
    10   1 H        0.925     0.038     2.476     2.461
    11   1 H        0.926     0.038     2.474     2.460

 Mol. C6AA /au·bohr⁶  :       1553.412856
 Mol. C8AA /au·bohr⁸  :      37446.494797
 Mol. α(0) /au        :         63.259968


Wiberg/Mayer (AO) data.
largest (>0.10) Wiberg bond orders for each atom

 ---------------------------------------------------------------------------
     #   Z sym  total        # sym  WBO       # sym  WBO       # sym  WBO
 ---------------------------------------------------------------------------
     1   6 C    3.991 --     2 C    1.443     6 C    1.443     7 H    0.970
                             4 N    0.104
     2   6 C    3.992 --     1 C    1.443     3 C    1.427     8 H    0.970
                             5 C    0.117
     3   6 C    3.982 --     4 N    1.441     2 C    1.427     9 H    0.964
                             6 C    0.117
     4   7 N    3.062 --     3 C    1.441     5 C    1.441     1 C    0.104
     5   6 C    3.982 --     4 N    1.441     6 C    1.427    10 H    0.964
                             2 C    0.117
     6   6 C    3.992 --     1 C    1.443     5 C    1.427    11 H    0.970
                             3 C    0.117
     7   1 H    0.999 --     1 C    0.970
     8   1 H    0.999 --     2 C    0.970
     9   1 H    0.999 --     3 C    0.964
    10   1 H    0.999 --     5 C    0.964
    11   1 H    0.999 --     6 C    0.970
 ---------------------------------------------------------------------------

Topologies differ in total number of bonds
Writing topology from bond orders to xtbtopo.mol

molecular dipole:
                 x           y           z       tot (Debye)
 q only:        0.465      -0.000      -0.000
   full:        0.864      -0.000      -0.000       2.197
molecular quadrupole (traceless):
                xx          xy          yy          xz          yz          zz
 q only:       -1.082       0.000       2.445      -0.000      -0.000      -1.363
  q+dip:       -1.249       0.000       5.040      -0.000      -0.000      -3.791
   full:       -2.855       0.001       3.977       0.000      -0.000      -1.121

           -------------------------------------------------
          |                Geometry Summary                 |
           -------------------------------------------------

      molecular mass/u    :       79.1000865
   center of mass at/Å    :        0.0065095       0.0000009       0.0000009
  moments of inertia/u·Å² :        0.8265446E+02   0.8555599E+02   0.1682105E+03
rotational constants/cm⁻¹ :        0.2039531E+00   0.1970363E+00   0.1002175E+00

 * 11 selected distances

     #   Z          #   Z                                           value/Å
     1   6 C        2   6 C                                       1.3862769
     2   6 C        3   6 C                                       1.3873426
     3   6 C        4   7 N                                       1.3226319
     4   7 N        5   6 C                                       1.3226320
     1   6 C        6   6 C                                       1.3862770
     5   6 C        6   6 C                                       1.3873426 (max)
     1   6 C        7   1 H                                       1.0810186
     2   6 C        8   1 H                                       1.0794057
     3   6 C        9   1 H                                       1.0829154
     5   6 C       10   1 H                                       1.0829154
     6   6 C       11   1 H                                       1.0794057 (min)

 * 3 distinct bonds (by element types)

   Z      Z             #   av. dist./Å        max./Å        min./Å
   1 H    6 C           5     1.0811322     1.0829154     1.0794057
   6 C    6 C           4     1.3868098     1.3873426     1.3862769
   6 C    7 N           2     1.3226319     1.3226320     1.3226319


optimized geometry written to: xtbopt.xyz


           -------------------------------------------------
          | TOTAL ENERGY              -16.156823220090 Eh   |
          | GRADIENT NORM               0.000023385288 Eh/α |
          | HOMO-LUMO GAP               3.221261844324 eV   |
           -------------------------------------------------

------------------------------------------------------------------------
 * finished run on 2024/08/07 at 19:40:01.291     
------------------------------------------------------------------------
 total:
 * wall-time:     0 d,  0 h,  0 min,  1.211 sec
 *  cpu-time:     0 d,  0 h,  0 min,  7.749 sec
 * ratio c/w:     6.401 speedup
 SCF:
 * wall-time:     0 d,  0 h,  0 min,  0.117 sec
 *  cpu-time:     0 d,  0 h,  0 min,  0.873 sec
 * ratio c/w:     7.488 speedup
 ANC optimizer:
 * wall-time:     0 d,  0 h,  0 min,  1.083 sec
 *  cpu-time:     0 d,  0 h,  0 min,  6.810 sec
 * ratio c/w:     6.288 speedup

