11
 energy: -16.155780023097 gnorm: 0.025154597133 xtb: 6.7.0 (08769fc)
C            1.40241843570000       -0.00010669900000        0.00001923800000
C            0.69189310760000        1.17575131980000       -0.00000609110000
C           -0.68368526510000        1.11924551390000       -0.00000650510000
N           -1.38805217760000        0.00010493800000        0.00001243540000
C           -0.68386027540000       -1.11914649350000       -0.00000989680000
C            0.69170094510000       -1.17585176230000       -0.00001235210000
H            2.48064002390000       -0.00019747650000        0.00004315660000
H            1.20238524820000        2.12518922290000        0.00004233470000
H           -1.24924809110000        2.03960972420000       -0.00009348590000
H           -1.24957089040000       -2.03940469160000        0.00014823940000
H            1.20204805730000       -2.12536665310000       -0.00012707610000
11
 energy: -16.156692386279 gnorm: 0.007794947929 xtb: 6.7.0 (08769fc)
C            1.41044374112614       -0.00010820320715       -0.00000440356194
C            0.69761139848365        1.18753769762972       -0.00000140060440
C           -0.68617779792964        1.12831854136926       -0.00002360746180
N           -1.37875637966503        0.00010881071752        0.00001860863972
C           -0.68635466722808       -1.12821308688905        0.00004148588979
C            0.69742197150858       -1.18764217221368       -0.00000346287231
H            2.49094838163936       -0.00019696058062        0.00000576555680
H            1.20464225917055        2.14078345044614        0.00001242055905
H           -1.26854606696244        2.04196135466241       -0.00003693510087
H           -1.26887140225045       -2.04175683933813        0.00003478343557
H            1.20430768030738       -2.14096564979642       -0.00003325747961
11
 energy: -16.156803425901 gnorm: 0.003087686162 xtb: 6.7.0 (08769fc)
C            1.41076866085154       -0.00010885039924       -0.00000145636252
C            0.70030792961841        1.19150573324194        0.00000299902410
C           -0.68596424426649        1.13220352761690        0.00000036169586
N           -1.37079209936027        0.00010963843593        0.00000441465966
C           -0.68614186701044       -1.13209454790122        0.00000103302090
C            0.70011979540467       -1.19161244736736       -0.00000585874852
H            2.49157692411019       -0.00019576385022       -0.00000703623387
H            1.20729792521220        2.14472459480184       -0.00000170967550
H           -1.27857150375038        2.03963963028095       -0.00002190435993
H           -1.27889555034082       -2.03943480678052        0.00004086118186
H            1.20696314773139       -2.14490976527900       -0.00000170720204
11
 energy: -16.156820542412 gnorm: 0.001300577173 xtb: 6.7.0 (08769fc)
C            1.40928660714598       -0.00010907576517       -0.00000444287417
C            0.70110854817606        1.19234095838032       -0.00001061275108
C           -0.68541872844804        1.13349333670924       -0.00000798249058
N           -1.36710284108578        0.00010934983867        0.00000694729284
C           -0.68559668961652       -1.13338306344387        0.00001969380942
C            0.70092080731016       -1.19244840553412        0.00001059661100
H            2.49015378237490       -0.00019486336563       -0.00000860209047
H            1.20932365946939        2.14467593403400       -0.00001144211642
H           -1.28233573391128        2.03751184120996       -0.00000110988269
H           -1.28265819862276       -2.03730659479755        0.00000798361843
H            1.20898790540789       -2.14486247446583        0.00000896787372
11
 energy: -16.156822864242 gnorm: 0.000634638681 xtb: 6.7.0 (08769fc)
C            1.40773017814248       -0.00010921078702       -0.00000158017460
C            0.70118722050785        1.19235201619732        0.00000057273112
C           -0.68497944228378        1.13393046040245        0.00000911396006
N           -1.36568432022230        0.00010887784492        0.00000377102861
C           -0.68515766057817       -1.13381973839367       -0.00000660833733
C            0.70099966149610       -1.19245959880242       -0.00000311075652
H            2.48872903199081       -0.00019415295447       -0.00000671797822
H            1.21103419298323        2.14370101148309       -0.00001623198475
H           -1.28378300657383        2.03605644727737       -0.00001012223418
H           -1.28410421159369       -2.03585078478980        0.00002929989655
H            1.21069747433130       -2.14388838467777        0.00001161084927
11
 energy: -16.156823208222 gnorm: 0.000115087230 xtb: 6.7.0 (08769fc)
C            1.40797734504700       -0.00010921965199       -0.00000405795874
C            0.70104288852466        1.19230634490518       -0.00001369511826
C           -0.68506806130225        1.13377329111140       -0.00001030741891
N           -1.36633314630501        0.00010893667039        0.00000772531650
C           -0.68524628812650       -1.13366273507505        0.00002178306494
C            0.70085534953002       -1.19241380112322        0.00001308384755
H            2.48900110585876       -0.00019418115387       -0.00000682698434
H            1.21089773158833        2.14370777361602       -0.00001322470448
H           -1.28334872378160        2.03638522991015        0.00000248167353
H           -1.28367019649358       -2.03617963195775        0.00000493775941
H            1.21056111366018       -2.14389506445126        0.00000809752279
11
 energy: -16.156823220051 gnorm: 0.000023451130 xtb: 6.7.0 (08769fc)
C            1.40799941675114       -0.00010925143395       -0.00000211545362
C            0.70104195100833        1.19235645240718        0.00000150784814
C           -0.68506404069683        1.13379573931544        0.00000893152369
N           -1.36631948907764        0.00010894034471        0.00000478847042
C           -0.68524229991171       -1.13368513800505       -0.00000465552583
C            0.70085446736085       -1.19246390518915       -0.00000376081192
H            2.48901795387455       -0.00019410616101       -0.00000665307766
H            1.21098723216428        2.14370934651827       -0.00001426186579
H           -1.28346758915217        2.03635806852935       -0.00001336687947
H           -1.28378903435658       -2.03615247420833        0.00003002414381
H            1.21065055023580       -2.14389672931745        0.00000955862822
