      -----------------------------------------------------------      
     |                   =====================                   |     
     |                           x T B                           |     
     |                   =====================                   |     
     |                         S. Grimme                         |     
     |          Mulliken Center for Theoretical Chemistry        |     
     |                    University of Bonn                     |     
      -----------------------------------------------------------      

   * xtb version 6.7.0 (08769fc) compiled by 'albert@albert-system' on 2024-03-04

   xtb is free software: you can redistribute it and/or modify it under
   the terms of the GNU Lesser General Public License as published by
   the Free Software Foundation, either version 3 of the License, or
   (at your option) any later version.
   
   xtb is distributed in the hope that it will be useful,
   but WITHOUT ANY WARRANTY; without even the implied warranty of
   MERCHANTABILITY or FITNESS FOR A PARTICULAR PURPOSE.  See the
   GNU Lesser General Public License for more details.
   
   Cite this work as:
   * C. Bannwarth, E. Caldeweyher, S. Ehlert, A. Hansen, P. Pracht,
     J. Seibert, S. Spicher, S. Grimme, WIREs Comput. Mol. Sci., 2020, 11,
     e01493. DOI: 10.1002/wcms.1493
   
   for GFN2-xTB:
   * C. Bannwarth, S. Ehlert and S. Grimme., J. Chem. Theory Comput., 2019,
     15, 1652-1671. DOI: 10.1021/acs.jctc.8b01176
   for GFN1-xTB:
   * S. Grimme, C. Bannwarth, P. Shushkov, J. Chem. Theory Comput., 2017,
     13, 1989-2009. DOI: 10.1021/acs.jctc.7b00118
   for GFN0-xTB:
   * P. Pracht, E. Caldeweyher, S. Ehlert, S. Grimme, ChemRxiv, 2019, preprint.
     DOI: 10.26434/chemrxiv.8326202.v1
   for GFN-FF:
   * S. Spicher and S. Grimme, Angew. Chem. Int. Ed., 2020, 59, 15665-15673.
     DOI: 10.1002/anie.202004239
   
   for ALPB and GBSA implicit solvation:
   * S. Ehlert, M. Stahn, S. Spicher, S. Grimme, J. Chem. Theory Comput.,
     2021, 17, 4250-4261. DOI: 10.1021/acs.jctc.1c00471
   
   for ddCOSMO and CPCM-X implicit solvation:
   * M. Stahn, S. Ehlert, S. Grimme, J. Phys. Chem. A,
     2023, XX, XXXX-XXXX. DOI: 10.1021/acs.jpca.3c04382
   
   for DFT-D4:
   * E. Caldeweyher, C. Bannwarth and S. Grimme, J. Chem. Phys., 2017,
     147, 034112. DOI: 10.1063/1.4993215
   * E. Caldeweyher, S. Ehlert, A. Hansen, H. Neugebauer, S. Spicher,
     C. Bannwarth and S. Grimme, J. Chem. Phys., 2019, 150, 154122.
     DOI: 10.1063/1.5090222
   * E. Caldeweyher, J.-M. Mewes, S. Ehlert and S. Grimme, Phys. Chem. Chem. Phys.
     2020, 22, 8499-8512. DOI: 10.1039/D0CP00502A
   
   for sTDA-xTB:
   * S. Grimme and C. Bannwarth, J. Chem. Phys., 2016, 145, 054103.
     DOI: 10.1063/1.4959605
   
   in the mass-spec context:
   * V. Asgeirsson, C. Bauer and S. Grimme, Chem. Sci., 2017, 8, 4879.
     DOI: 10.1039/c7sc00601b
   * J. Koopman and S. Grimme, ACS Omega 2019, 4, 12, 15120-15133.
     DOI: 10.1021/acsomega.9b02011
   
   for metadynamics refer to:
   * S. Grimme, J. Chem. Theory Comput., 2019, 155, 2847-2862
     DOI: 10.1021/acs.jctc.9b00143
   
   for SPH calculations refer to:
   * S. Spicher and S. Grimme, J. Chem. Theory Comput., 2021, 17, 1701-1714
     DOI: 10.1021/acs.jctc.0c01306
   
   for ONIOM refer to:
   * C. Plett, A. Katbashev, S. Ehlert, S. Grimme, M. Bursch,
     Phys. Chem. Chem. Phys., 2023, 25, 17860-17868. DOI: 10.1039/D3CP02178E
   
   for DIPRO refer to:
   * J. Kohn, N. Gildemeister, S. Grimme, D. Fazzi, A. Hansen,
     J. Chem. Phys., 2023, just accepted.
   
   for PTB refer to:
   * S. Grimme, M. Mueller, A. Hansen, J. Chem. Phys., 2023, 158, 124111.
     DOI: 10.1063/5.0137838
   
   with help from (in alphabetical order)
   P. Atkinson, C. Bannwarth, F. Bohle, G. Brandenburg, E. Caldeweyher
   M. Checinski, S. Dohm, S. Ehlert, S. Ehrlich, I. Gerasimov, C. Hölzer
   A. Katbashev, J. Kohn, J. Koopman, C. Lavigne, S. Lehtola, F. März, M. Müller,
   F. Musil, H. Neugebauer, J. Pisarek, C. Plett, P. Pracht, F. Pultar,
   J. Seibert, P. Shushkov, S. Spicher, M. Stahn, M. Steiner, T. Strunk,
   J. Stückrath, T. Rose, and J. Unsleber
   
 * started run on 2024/08/07 at 20:22:56.672     
   ID    Z sym.   atoms
    1    8 O      1
    2    6 C      2-4, 6
    3    7 N      5, 7
    4    1 H      8, 9

           -------------------------------------------------
          |                Calculation Setup                |
           -------------------------------------------------

          program call               : /home/mvotokps/xtb-dist/bin/xtb crest_best.xyz --gfn 2 --alpb toluene --opt vtight -c 0 --iterations 4000
          coordinate file            : crest_best.xyz
          omp threads                :                     8


           -------------------------------------------------
          |                 G F N 2 - x T B                 |
           -------------------------------------------------

        Reference                      10.1021/acs.jctc.8b01176
      * Hamiltonian:
        H0-scaling (s, p, d)           1.850000    2.230000    2.230000
        zeta-weighting                 0.500000
      * Dispersion:
        s8                             2.700000
        a1                             0.520000
        a2                             5.000000
        s9                             5.000000
      * Repulsion:
        kExp                           1.500000    1.000000
        rExp                           1.000000
      * Coulomb:
        alpha                          2.000000
        third order                    shell-resolved
        anisotropic                    true
        a3                             3.000000
        a5                             4.000000
        cn-shift                       1.200000
        cn-exp                         4.000000
        max-rad                        5.000000

      * Solvation model:               ALPB
        Solvent                        toluene
        Parameter file                 internal GFN2-xTB/ALPB
        Dielectric constant                7.0000E+00
        Reference state                gsolv [1 M gas/solution]
        Free energy shift                  2.2081E-03 Eh       1.3856E+00 kcal/mol
        Temperature                        2.9815E+02 K
        Density                            8.6700E-01 kg/L
        Solvent mass                       7.8110E+01 g/mol
        Interaction kernel             P16
        Born radius scaling (c1)           1.7172E+00
        Born radii integrator          GBOBC
        Born offset                        0.0000E+00 a0       0.0000E+00 AA
        H-bond correction              false
        Ion screening                  false
        Surface tension                    1.0000E-05 Eh       1.5569E+01 dyn/cm
        Grid points                               230 per atom

          ...................................................
          :                      SETUP                      :
          :.................................................:
          :  # basis functions                  30          :
          :  # atomic orbitals                  30          :
          :  # shells                           16          :
          :  # electrons                        34          :
          :  max. iterations                  4000          :
          :  Hamiltonian                  GFN2-xTB          :
          :  restarted?                      false          :
          :  GBSA solvation                   true          :
          :  PC potential                    false          :
          :  electronic temp.          300.0000000     K    :
          :  accuracy                    1.0000000          :
          :  -> integral cutoff          0.2500000E+02      :
          :  -> integral neglect         0.1000000E-07      :
          :  -> SCF convergence          0.1000000E-05 Eh   :
          :  -> wf. convergence          0.1000000E-03 e    :
          :  Broyden damping             0.4000000          :
          :  net charge                          0          :
          :  unpaired electrons                  0          :
          ...................................................

 iter      E             dE          RMSdq      gap      omega  full diag
   1    -19.6536949 -0.196537E+02  0.791E+00    4.24       0.0  T
   2    -19.6752480 -0.215531E-01  0.488E+00    3.59       1.0  T
   3    -19.6498153  0.254327E-01  0.333E+00    3.77       1.0  T
   4    -19.7040561 -0.542408E-01  0.874E-01    3.81       1.0  T
   5    -19.7081971 -0.414096E-02  0.212E-01    3.68       1.0  T
   6    -19.7082473 -0.502443E-04  0.711E-02    3.69       1.0  T
   7    -19.7082681 -0.208236E-04  0.228E-02    3.69       1.5  T
   8    -19.7082698 -0.171690E-05  0.103E-02    3.68       3.2  T
   9    -19.7082704 -0.563086E-06  0.344E-03    3.68       9.7  T
  10    -19.7082704 -0.365750E-07  0.176E-03    3.68      19.0  T
  11    -19.7082705 -0.133848E-07  0.304E-04    3.68     109.8  T
  12    -19.7082705 -0.130143E-09  0.977E-05    3.68     341.2  T

   *** convergence criteria satisfied after 12 iterations ***

         #    Occupation            Energy/Eh            Energy/eV
      -------------------------------------------------------------
         1        2.0000           -0.7769855             -21.1429
       ...           ...                  ...                  ...
        11        2.0000           -0.5256959             -14.3049
        12        2.0000           -0.5237337             -14.2515
        13        2.0000           -0.5173602             -14.0781
        14        2.0000           -0.5084096             -13.8345
        15        2.0000           -0.4739255             -12.8962
        16        2.0000           -0.4667964             -12.7022
        17        2.0000           -0.4561778             -12.4132 (HOMO)
        18                         -0.3207754              -8.7287 (LUMO)
        19                         -0.2736674              -7.4469
        20                         -0.2573697              -7.0034
        21                         -0.2533341              -6.8936
        22                         -0.2365609              -6.4371
       ...                                ...                  ...
        30                          1.0748242              29.2475
      -------------------------------------------------------------
                  HL-Gap            0.1354025 Eh            3.6845 eV
             Fermi-level           -0.3884766 Eh          -10.5710 eV

 SCC (total)                   0 d,  0 h,  0 min,  0.115 sec
 SCC setup                      ...        0 min,  0.000 sec (  0.229%)
 Dispersion                     ...        0 min,  0.000 sec (  0.096%)
 classical contributions        ...        0 min,  0.000 sec (  0.009%)
 integral evaluation            ...        0 min,  0.000 sec (  0.327%)
 iterations                     ...        0 min,  0.113 sec ( 98.375%)
 molecular gradient             ...        0 min,  0.001 sec (  0.828%)
 printout                       ...        0 min,  0.000 sec (  0.094%)

         :::::::::::::::::::::::::::::::::::::::::::::::::::::
         ::                     SUMMARY                     ::
         :::::::::::::::::::::::::::::::::::::::::::::::::::::
         :: total energy             -19.376337037582 Eh    ::
         :: total w/o Gsasa/hb       -19.367119665378 Eh    ::
         :: gradient norm              0.109426759214 Eh/a0 ::
         :: HOMO-LUMO gap              3.684489058492 eV    ::
         ::.................................................::
         :: SCC energy               -19.708263830382 Eh    ::
         :: -> isotropic ES            0.038599741069 Eh    ::
         :: -> anisotropic ES          0.003094853091 Eh    ::
         :: -> anisotropic XC          0.033405858313 Eh    ::
         :: -> dispersion             -0.005767373050 Eh    ::
         :: -> Gsolv                  -0.011382090785 Eh    ::
         ::    -> Gelec               -0.002164718582 Eh    ::
         ::    -> Gsasa               -0.011425515342 Eh    ::
         ::    -> Ghb                  0.000000000000 Eh    ::
         ::    -> Gshift               0.002208143139 Eh    ::
         :: repulsion energy           0.331926792801 Eh    ::
         :: add. restraining           0.000000000000 Eh    ::
         :: total charge              -0.000000000000 e     ::
         :::::::::::::::::::::::::::::::::::::::::::::::::::::

      ----------------------------------------------------------- 
     |                   =====================                   |
     |                        A N C O P T                        |
     |                   =====================                   |
     |               Approximate Normal Coordinate               |
     |                Rational Function Optimizer                |
      ----------------------------------------------------------- 
      ----------------------------------------------------------- 
     |                   =====================                   |
     |                        A N C O P T                        |
     |                   =====================                   |
     |               Approximate Normal Coordinate               |
     |                Rational Function Optimizer                |
      ----------------------------------------------------------- 

          ...................................................
          :                      SETUP                      :
          :.................................................:
          :   optimization level         verytight          :
          :   max. optcycles                   200          :
          :   ANC micro-cycles                  20          :
          :   degrees of freedom                21          :
          :.................................................:
          :   RF solver                   davidson          :
          :   write xtbopt.log                true          :
          :   linear?                        false          :
          :   energy convergence         0.1000000E-06 Eh   :
          :   grad. convergence          0.2000000E-03 Eh/α :
          :   maxmium RF displ.          1.0000000          :
          :   Hlow (freq-cutoff)         0.1000000E-01      :
          :   Hmax (freq-cutoff)         5.0000000          :
          :   S6 in model hess.         20.0000000          :
          ...................................................

generating ANC from model Hessian ...
Using Lindh-Hessian (1995)
 Shifting diagonal of input Hessian by   4.829403461462302E-003
 Lowest  eigenvalues of input Hessian
    0.000000    0.000000    0.000000    0.000000    0.000000    0.000000
    0.010000    0.012392    0.020532    0.029667    0.045169    0.077830
    0.082918    0.112639    0.145162    0.150555    0.216661    0.381682
 Highest eigenvalues
    0.995194    1.135333    1.406116    2.228832    2.513943    2.578262
 

........................................................................
.............................. CYCLE    1 ..............................
........................................................................

 iter      E             dE          RMSdq      gap      omega  full diag
   1    -19.7082705 -0.197083E+02  0.330E-05    3.68       0.0  T
   2    -19.7082705  0.429878E-12  0.331E-05    3.68    1007.9  T
   3    -19.7082705 -0.792966E-11  0.831E-06    3.68    4010.3  T
     SCC iter.                  ...        0 min,  0.107 sec
     gradient                   ...        0 min,  0.002 sec
 * total energy  :   -19.3763370 Eh     change       -0.5514877E-10 Eh
   gradient norm :     0.1094260 Eh/α   predicted     0.0000000E+00 (-100.00%)
   displ. norm   :     0.1187295 α      lambda       -0.7320804E-02
   maximum displ.:     0.0675671 α      in ANC's #12, #10, #4, ...

........................................................................
.............................. CYCLE    2 ..............................
........................................................................

 iter      E             dE          RMSdq      gap      omega  full diag
   1    -19.7269778 -0.197270E+02  0.271E-01    3.67       0.0  T
   2    -19.7270259 -0.481028E-04  0.184E-01    3.68       1.0  T
   3    -19.7269793  0.466874E-04  0.105E-01    3.67       1.0  T
   4    -19.7270495 -0.702144E-04  0.318E-02    3.67       1.0  T
   5    -19.7270547 -0.524616E-05  0.767E-03    3.67       4.3  T
   6    -19.7270548 -0.921419E-07  0.335E-03    3.67       9.9  T
   7    -19.7270548 -0.342245E-07  0.108E-03    3.67      31.0  T
   8    -19.7270548 -0.628713E-09  0.529E-04    3.67      63.1  T
   9    -19.7270548 -0.115348E-08  0.234E-04    3.67     142.3  T
     SCC iter.                  ...        0 min,  0.111 sec
     gradient                   ...        0 min,  0.001 sec
 * total energy  :   -19.3805554 Eh     change       -0.4218373E-02 Eh
   gradient norm :     0.0252983 Eh/α   predicted    -0.3712003E-02 ( -12.00%)
   displ. norm   :     0.1707932 α      lambda       -0.1498790E-02
   maximum displ.:     0.1013131 α      in ANC's #2, #1, #4, ...

........................................................................
.............................. CYCLE    3 ..............................
........................................................................

 iter      E             dE          RMSdq      gap      omega  full diag
   1    -19.7212810 -0.197213E+02  0.457E-01    3.68       0.0  T
   2    -19.7213078 -0.268043E-04  0.267E-01    3.68       1.0  T
   3    -19.7211391  0.168714E-03  0.156E-01    3.67       1.0  T
   4    -19.7213384 -0.199328E-03  0.171E-02    3.67       1.9  T
   5    -19.7213390 -0.520787E-06  0.816E-03    3.67       4.1  T
   6    -19.7213390 -0.763182E-07  0.210E-03    3.67      15.8  T
   7    -19.7213390 -0.969999E-08  0.108E-03    3.67      30.9  T
   8    -19.7213390 -0.437990E-08  0.357E-04    3.67      93.4  T
   9    -19.7213390 -0.385445E-09  0.190E-04    3.67     175.2  T
     SCC iter.                  ...        0 min,  0.114 sec
     gradient                   ...        0 min,  0.002 sec
 * total energy  :   -19.3813503 Eh     change       -0.7949066E-03 Eh
   gradient norm :     0.0147726 Eh/α   predicted    -0.7712554E-03 (  -2.98%)
   displ. norm   :     0.1072356 α      lambda       -0.5464422E-03
   maximum displ.:     0.0707450 α      in ANC's #2, #3, #4, ...

........................................................................
.............................. CYCLE    4 ..............................
........................................................................

 iter      E             dE          RMSdq      gap      omega  full diag
   1    -19.7189292 -0.197189E+02  0.301E-01    3.70       0.0  T
   2    -19.7189390 -0.983744E-05  0.171E-01    3.69       1.0  T
   3    -19.7189038  0.352227E-04  0.718E-02    3.69       1.0  T
   4    -19.7189459 -0.420371E-04  0.821E-03    3.69       4.1  T
   5    -19.7189460 -0.101915E-06  0.406E-03    3.69       8.2  T
   6    -19.7189460 -0.154440E-07  0.204E-03    3.69      16.4  T
   7    -19.7189460 -0.185761E-07  0.626E-04    3.69      53.2  T
   8    -19.7189460 -0.114520E-08  0.169E-04    3.69     197.3  T
     SCC iter.                  ...        0 min,  0.107 sec
     gradient                   ...        0 min,  0.003 sec
 * total energy  :   -19.3814940 Eh     change       -0.1437079E-03 Eh
   gradient norm :     0.0083758 Eh/α   predicted    -0.2763638E-03 (  92.31%)
   displ. norm   :     0.0711050 α      lambda       -0.2359465E-03
   maximum displ.:     0.0481533 α      in ANC's #1, #2, #5, ...

........................................................................
.............................. CYCLE    5 ..............................
........................................................................

 iter      E             dE          RMSdq      gap      omega  full diag
   1    -19.7206567 -0.197207E+02  0.216E-01    3.70       0.0  T
   2    -19.7206619 -0.522360E-05  0.121E-01    3.69       1.0  T
   3    -19.7206511  0.107762E-04  0.403E-02    3.69       1.0  T
   4    -19.7206649 -0.137530E-04  0.610E-03    3.69       5.5  T
   5    -19.7206649 -0.820806E-07  0.242E-03    3.69      13.8  T
   6    -19.7206650 -0.229610E-07  0.738E-04    3.69      45.2  T
   7    -19.7206650 -0.181043E-09  0.236E-04    3.69     141.1  T
     SCC iter.                  ...        0 min,  0.159 sec
     gradient                   ...        0 min,  0.007 sec
 * total energy  :   -19.3816284 Eh     change       -0.1343392E-03 Eh
   gradient norm :     0.0044432 Eh/α   predicted    -0.1185703E-03 ( -11.74%)
   displ. norm   :     0.0874334 α      lambda       -0.1552098E-03
   maximum displ.:     0.0753024 α      in ANC's #3, #2, #4, ...

........................................................................
.............................. CYCLE    6 ..............................
........................................................................

 iter      E             dE          RMSdq      gap      omega  full diag
   1    -19.7233945 -0.197234E+02  0.194E-01    3.69       0.0  T
   2    -19.7233963 -0.175194E-05  0.114E-01    3.69       1.0  T
   3    -19.7233828  0.134796E-04  0.434E-02    3.69       1.0  T
   4    -19.7233982 -0.154005E-04  0.529E-03    3.69       6.3  T
   5    -19.7233982 -0.107134E-07  0.198E-03    3.69      16.9  T
   6    -19.7233982 -0.125184E-07  0.102E-03    3.69      32.7  T
   7    -19.7233982 -0.363084E-08  0.392E-04    3.69      85.0  T
   8    -19.7233982 -0.321389E-09  0.170E-04    3.69     195.9  T
     SCC iter.                  ...        0 min,  0.236 sec
     gradient                   ...        0 min,  0.013 sec
 * total energy  :   -19.3816921 Eh     change       -0.6375041E-04 Eh
   gradient norm :     0.0041902 Eh/α   predicted    -0.7819758E-04 (  22.66%)
   displ. norm   :     0.1062429 α      lambda       -0.1213677E-03
   maximum displ.:     0.0812172 α      in ANC's #3, #1, #4, ...

........................................................................
.............................. CYCLE    7 ..............................
........................................................................

 iter      E             dE          RMSdq      gap      omega  full diag
   1    -19.7229289 -0.197229E+02  0.229E-01    3.68       0.0  T
   2    -19.7229312 -0.232405E-05  0.133E-01    3.68       1.0  T
   3    -19.7229280  0.325628E-05  0.248E-02    3.68       1.3  T
   4    -19.7229324 -0.448547E-05  0.578E-03    3.68       5.8  T
   5    -19.7229324  0.143840E-07  0.317E-03    3.68      10.5  T
   6    -19.7229325 -0.551176E-07  0.918E-04    3.68      36.3  T
   7    -19.7229325 -0.183052E-08  0.543E-04    3.68      61.4  T
     SCC iter.                  ...        0 min,  0.188 sec
     gradient                   ...        0 min,  0.001 sec
 * total energy  :   -19.3817857 Eh     change       -0.9358076E-04 Eh
   gradient norm :     0.0042752 Eh/α   predicted    -0.6136921E-04 ( -34.42%)
   displ. norm   :     0.2612560 α      lambda       -0.2536931E-03
   maximum displ.:     0.2183022 α      in ANC's #3, #1, #4, ...

........................................................................
.............................. CYCLE    8 ..............................
........................................................................

 iter      E             dE          RMSdq      gap      omega  full diag
   1    -19.7195655 -0.197196E+02  0.505E-01    3.62       0.0  T
   2    -19.7195719 -0.641998E-05  0.297E-01    3.62       1.0  T
   3    -19.7195592  0.126936E-04  0.481E-02    3.62       1.0  T
   4    -19.7195752 -0.160091E-04  0.886E-03    3.62       3.8  T
   5    -19.7195753 -0.977896E-07  0.448E-03    3.62       7.4  T
   6    -19.7195753 -0.141263E-07  0.229E-03    3.62      14.5  T
   7    -19.7195753 -0.185423E-07  0.109E-03    3.62      30.6  T
   8    -19.7195753 -0.484759E-08  0.427E-04    3.62      78.0  T
   9    -19.7195753 -0.292466E-09  0.212E-04    3.62     157.2  T
     SCC iter.                  ...        0 min,  0.119 sec
     gradient                   ...        0 min,  0.016 sec
 * total energy  :   -19.3818287 Eh     change       -0.4304198E-04 Eh
   gradient norm :     0.0191303 Eh/α   predicted    -0.1355021E-03 ( 214.81%)
   displ. norm   :     0.0758779 α      lambda       -0.2432820E-03
   maximum displ.:     0.0595398 α      in ANC's #3, #4, #1, ...

........................................................................
.............................. CYCLE    9 ..............................
........................................................................

 iter      E             dE          RMSdq      gap      omega  full diag
   1    -19.7222057 -0.197222E+02  0.153E-01    3.67       0.0  T
   2    -19.7222075 -0.181948E-05  0.901E-02    3.67       1.0  T
   3    -19.7222015  0.599401E-05  0.293E-02    3.67       1.1  T
   4    -19.7222083 -0.677304E-05  0.474E-03    3.67       7.0  T
   5    -19.7222084 -0.686136E-07  0.217E-03    3.67      15.4  T
   6    -19.7222084 -0.948107E-08  0.121E-03    3.67      27.4  T
   7    -19.7222084 -0.485104E-08  0.545E-04    3.67      61.1  T
   8    -19.7222084 -0.649631E-09  0.161E-04    3.67     206.7  T
     SCC iter.                  ...        0 min,  0.100 sec
     gradient                   ...        0 min,  0.001 sec
 * total energy  :   -19.3819526 Eh     change       -0.1238546E-03 Eh
   gradient norm :     0.0053970 Eh/α   predicted    -0.1223408E-03 (  -1.22%)
   displ. norm   :     0.0962535 α      lambda       -0.9367174E-04
   maximum displ.:     0.0845872 α      in ANC's #3, #1, #4, ...

........................................................................
.............................. CYCLE   10 ..............................
........................................................................

 iter      E             dE          RMSdq      gap      omega  full diag
   1    -19.7223971 -0.197224E+02  0.181E-01    3.67       0.0  T
   2    -19.7223977 -0.617039E-06  0.107E-01    3.67       1.0  T
   3    -19.7223934  0.427995E-05  0.253E-02    3.67       1.3  T
   4    -19.7223984 -0.492988E-05  0.356E-03    3.67       9.4  T
   5    -19.7223983  0.145884E-07  0.246E-03    3.67      13.6  T
   6    -19.7223984 -0.335105E-07  0.633E-04    3.67      52.6  T
   7    -19.7223984 -0.339508E-09  0.348E-04    3.67      95.8  T
     SCC iter.                  ...        0 min,  0.101 sec
     gradient                   ...        0 min,  0.001 sec
 * total energy  :   -19.3820324 Eh     change       -0.7984945E-04 Eh
   gradient norm :     0.0035336 Eh/α   predicted    -0.4726898E-04 ( -40.80%)
   displ. norm   :     0.3522053 α      lambda       -0.3239879E-03
   maximum displ.:     0.3023601 α      in ANC's #3, #5, #4, ...

........................................................................
.............................. CYCLE   11 ..............................
........................................................................

 iter      E             dE          RMSdq      gap      omega  full diag
   1    -19.7197022 -0.197197E+02  0.639E-01    3.61       0.0  T
   2    -19.7197181 -0.158969E-04  0.376E-01    3.62       1.0  T
   3    -19.7196722  0.459281E-04  0.853E-02    3.62       1.0  T
   4    -19.7197252 -0.529733E-04  0.145E-02    3.62       2.3  T
   5    -19.7197257 -0.521880E-06  0.750E-03    3.62       4.4  T
   6    -19.7197259 -0.240640E-06  0.421E-03    3.62       7.9  T
   7    -19.7197260 -0.383369E-07  0.173E-03    3.62      19.2  T
   8    -19.7197260 -0.699327E-08  0.454E-04    3.62      73.4  T
   9    -19.7197260 -0.149075E-09  0.113E-04    3.62     296.1  T
     SCC iter.                  ...        0 min,  0.099 sec
     gradient                   ...        0 min,  0.001 sec
 * total energy  :   -19.3821237 Eh     change       -0.9125104E-04 Eh
   gradient norm :     0.0193902 Eh/α   predicted    -0.1820889E-03 (  99.55%)
   displ. norm   :     0.1223969 α      lambda       -0.2987646E-03
   maximum displ.:     0.1065320 α      in ANC's #3, #1, #4, ...

........................................................................
.............................. CYCLE   12 ..............................
........................................................................

 iter      E             dE          RMSdq      gap      omega  full diag
   1    -19.7235046 -0.197235E+02  0.233E-01    3.68       0.0  T
   2    -19.7235109 -0.628642E-05  0.137E-01    3.68       1.0  T
   3    -19.7235077  0.326384E-05  0.270E-02    3.68       1.2  T
   4    -19.7235118 -0.417923E-05  0.830E-03    3.68       4.0  T
   5    -19.7235122 -0.340251E-06  0.331E-03    3.68      10.1  T
   6    -19.7235122 -0.325009E-07  0.161E-03    3.68      20.7  T
   7    -19.7235122 -0.104590E-08  0.966E-04    3.68      34.5  T
   8    -19.7235122 -0.443836E-08  0.312E-04    3.68     106.9  T
     SCC iter.                  ...        0 min,  0.098 sec
     gradient                   ...        0 min,  0.001 sec
 * total energy  :   -19.3822040 Eh     change       -0.8031260E-04 Eh
   gradient norm :     0.0042918 Eh/α   predicted    -0.1516209E-03 (  88.79%)
   displ. norm   :     0.0896779 α      lambda       -0.8792662E-04
   maximum displ.:     0.0748527 α      in ANC's #3, #1, #4, ...

........................................................................
.............................. CYCLE   13 ..............................
........................................................................

 iter      E             dE          RMSdq      gap      omega  full diag
   1    -19.7224588 -0.197225E+02  0.173E-01    3.67       0.0  T
   2    -19.7224597 -0.918140E-06  0.101E-01    3.67       1.0  T
   3    -19.7224577  0.207892E-05  0.195E-02    3.67       1.7  T
   4    -19.7224603 -0.268945E-05  0.378E-03    3.67       8.8  T
   5    -19.7224603  0.372875E-08  0.179E-03    3.67      18.7  T
   6    -19.7224604 -0.137678E-07  0.726E-04    3.67      45.9  T
   7    -19.7224604 -0.157696E-08  0.402E-04    3.67      82.9  T
     SCC iter.                  ...        0 min,  0.138 sec
     gradient                   ...        0 min,  0.001 sec
 * total energy  :   -19.3822674 Eh     change       -0.6335523E-04 Eh
   gradient norm :     0.0028639 Eh/α   predicted    -0.4431615E-04 ( -30.05%)
   displ. norm   :     0.2195110 α      lambda       -0.1159805E-03
   maximum displ.:     0.1830099 α      in ANC's #3, #5, #4, ...

........................................................................
.............................. CYCLE   14 ..............................
........................................................................

 iter      E             dE          RMSdq      gap      omega  full diag
   1    -19.7200633 -0.197201E+02  0.400E-01    3.63       0.0  T
   2    -19.7200688 -0.559045E-05  0.236E-01    3.64       1.0  T
   3    -19.7200532  0.156046E-04  0.518E-02    3.64       1.0  T
   4    -19.7200719 -0.186998E-04  0.758E-03    3.64       4.4  T
   5    -19.7200720 -0.724419E-07  0.363E-03    3.64       9.2  T
   6    -19.7200720 -0.136806E-07  0.172E-03    3.64      19.4  T
   7    -19.7200720 -0.153312E-08  0.830E-04    3.64      40.2  T
   8    -19.7200720 -0.310867E-08  0.366E-04    3.64      91.1  T
     SCC iter.                  ...        0 min,  0.110 sec
     gradient                   ...        0 min,  0.001 sec
 * total energy  :   -19.3822815 Eh     change       -0.1410032E-04 Eh
   gradient norm :     0.0146052 Eh/α   predicted    -0.6078027E-04 ( 331.06%)
   displ. norm   :     0.0811673 α      lambda       -0.1276832E-03
   maximum displ.:     0.0690977 α      in ANC's #3, #4, #5, ...

........................................................................
.............................. CYCLE   15 ..............................
........................................................................

 iter      E             dE          RMSdq      gap      omega  full diag
   1    -19.7224945 -0.197225E+02  0.149E-01    3.67       0.0  T
   2    -19.7224971 -0.254246E-05  0.876E-02    3.67       1.0  T
   3    -19.7224955  0.159838E-05  0.183E-02    3.67       1.8  T
   4    -19.7224974 -0.195894E-05  0.528E-03    3.67       6.3  T
   5    -19.7224976 -0.143822E-06  0.186E-03    3.67      17.9  T
   6    -19.7224976 -0.107921E-07  0.939E-04    3.67      35.5  T
   7    -19.7224976  0.273083E-09  0.594E-04    3.67      56.1  T
     SCC iter.                  ...        0 min,  0.098 sec
     gradient                   ...        0 min,  0.001 sec
 * total energy  :   -19.3823404 Eh     change       -0.5898679E-04 Eh
   gradient norm :     0.0037248 Eh/α   predicted    -0.6426294E-04 (   8.94%)
   displ. norm   :     0.0598649 α      lambda       -0.3591829E-04
   maximum displ.:     0.0470772 α      in ANC's #3, #5, #4, ...

........................................................................
.............................. CYCLE   16 ..............................
........................................................................

 iter      E             dE          RMSdq      gap      omega  full diag
   1    -19.7228000 -0.197228E+02  0.108E-01    3.67       0.0  T
   2    -19.7228003 -0.321848E-06  0.639E-02    3.67       1.0  T
   3    -19.7227990  0.128528E-05  0.147E-02    3.67       2.3  T
   4    -19.7228006 -0.152007E-05  0.199E-03    3.67      16.7  T
   5    -19.7228006 -0.219694E-08  0.105E-03    3.67      31.8  T
   6    -19.7228006 -0.103979E-08  0.601E-04    3.67      55.5  T
   7    -19.7228006 -0.146967E-08  0.270E-04    3.67     123.5  T
     SCC iter.                  ...        0 min,  0.097 sec
     gradient                   ...        0 min,  0.001 sec
 * total energy  :   -19.3823722 Eh     change       -0.3177553E-04 Eh
   gradient norm :     0.0025410 Eh/α   predicted    -0.1802249E-04 ( -43.28%)
   displ. norm   :     0.2394419 α      lambda       -0.1075564E-03
   maximum displ.:     0.1922346 α      in ANC's #3, #5, #12, ...

........................................................................
.............................. CYCLE   17 ..............................
........................................................................

 iter      E             dE          RMSdq      gap      omega  full diag
   1    -19.7213339 -0.197213E+02  0.436E-01    3.65       0.0  T
   2    -19.7213389 -0.499016E-05  0.257E-01    3.65       1.0  T
   3    -19.7213216  0.172707E-04  0.547E-02    3.65       1.0  T
   4    -19.7213424 -0.207441E-04  0.810E-03    3.65       4.1  T
   5    -19.7213424 -0.466525E-07  0.346E-03    3.65       9.6  T
   6    -19.7213424 -0.156730E-07  0.198E-03    3.65      16.9  T
   7    -19.7213424 -0.769380E-08  0.104E-03    3.65      32.0  T
   8    -19.7213424 -0.495828E-08  0.392E-04    3.65      85.1  T
   9    -19.7213424 -0.304738E-09  0.157E-04    3.65     211.7  T
     SCC iter.                  ...        0 min,  0.100 sec
     gradient                   ...        0 min,  0.003 sec
 * total energy  :   -19.3824153 Eh     change       -0.4308167E-04 Eh
   gradient norm :     0.0096607 Eh/α   predicted    -0.5686457E-04 (  31.99%)
   displ. norm   :     0.0419578 α      lambda       -0.6502899E-04
   maximum displ.:     0.0344171 α      in ANC's #3, #4, #5, ...

........................................................................
.............................. CYCLE   18 ..............................
........................................................................

 iter      E             dE          RMSdq      gap      omega  full diag
   1    -19.7231338 -0.197231E+02  0.764E-02    3.68       0.0  T
   2    -19.7231351 -0.135821E-05  0.450E-02    3.67       1.0  T
   3    -19.7231345  0.617447E-06  0.120E-02    3.67       2.8  T
   4    -19.7231353 -0.753708E-06  0.371E-03    3.67       9.0  T
   5    -19.7231353 -0.735536E-07  0.126E-03    3.67      26.4  T
   6    -19.7231353 -0.697975E-08  0.577E-04    3.67      57.8  T
   7    -19.7231353 -0.844480E-10  0.337E-04    3.67      98.8  T
     SCC iter.                  ...        0 min,  0.098 sec
     gradient                   ...        0 min,  0.004 sec
 * total energy  :   -19.3824452 Eh     change       -0.2993142E-04 Eh
   gradient norm :     0.0011147 Eh/α   predicted    -0.3257266E-04 (   8.82%)
   displ. norm   :     0.1172072 α      lambda       -0.2222195E-04
   maximum displ.:     0.0928215 α      in ANC's #3, #12, #5, ...

........................................................................
.............................. CYCLE   19 ..............................
........................................................................

 iter      E             dE          RMSdq      gap      omega  full diag
   1    -19.7229584 -0.197230E+02  0.216E-01    3.67       0.0  T
   2    -19.7229594 -0.105280E-05  0.127E-01    3.67       1.0  T
   3    -19.7229559  0.353545E-05  0.250E-02    3.67       1.3  T
   4    -19.7229602 -0.430748E-05  0.396E-03    3.67       8.4  T
   5    -19.7229602 -0.108589E-07  0.150E-03    3.67      22.3  T
   6    -19.7229602 -0.233747E-08  0.971E-04    3.67      34.3  T
   7    -19.7229602 -0.402603E-08  0.342E-04    3.67      97.5  T
     SCC iter.                  ...        0 min,  0.098 sec
     gradient                   ...        0 min,  0.001 sec
 * total energy  :   -19.3824710 Eh     change       -0.2573416E-04 Eh
   gradient norm :     0.0017191 Eh/α   predicted    -0.1117913E-04 ( -56.56%)
   displ. norm   :     0.1552344 α      lambda       -0.2155763E-04
   maximum displ.:     0.1180240 α      in ANC's #3, #12, #5, ...

........................................................................
.............................. CYCLE   20 ..............................
........................................................................

 iter      E             dE          RMSdq      gap      omega  full diag
   1    -19.7223101 -0.197223E+02  0.290E-01    3.66       0.0  T
   2    -19.7223124 -0.236072E-05  0.171E-01    3.66       1.0  T
   3    -19.7223059  0.654339E-05  0.341E-02    3.66       1.0  T
   4    -19.7223139 -0.799829E-05  0.532E-03    3.66       6.3  T
   5    -19.7223139 -0.222732E-07  0.222E-03    3.66      15.0  T
   6    -19.7223139 -0.876142E-09  0.128E-03    3.66      26.1  T
   7    -19.7223139 -0.516379E-08  0.695E-04    3.66      48.0  T
   8    -19.7223139 -0.217828E-08  0.231E-04    3.66     144.2  T
     SCC iter.                  ...        0 min,  0.101 sec
     gradient                   ...        0 min,  0.001 sec
 * total energy  :   -19.3824831 Eh     change       -0.1209867E-04 Eh
   gradient norm :     0.0056186 Eh/α   predicted    -0.1089635E-04 (  -9.94%)
   displ. norm   :     0.0108538 α      lambda       -0.2038920E-04
   maximum displ.:     0.0055769 α      in ANC's #1, #12, #2, ...
 * RMSD in coord.:     0.5221433 α      energy gain  -0.6146032E-02 Eh

generating ANC from model Hessian ...
Using Lindh-Hessian (1995)
 Shifting diagonal of input Hessian by   4.850897051345845E-003
 Lowest  eigenvalues of input Hessian
    0.000000    0.000000    0.000000    0.000000    0.000000    0.000000
    0.010000    0.011256    0.020438    0.023436    0.028009    0.057240
    0.087049    0.107572    0.120391    0.138915    0.204695    0.354075
 Highest eigenvalues
    0.940954    1.053302    1.287101    2.219865    2.546216    2.588765
 

........................................................................
.............................. CYCLE   21 ..............................
........................................................................

 iter      E             dE          RMSdq      gap      omega  full diag
   1    -19.7232074 -0.197232E+02  0.222E-02    3.68       0.0  T
   2    -19.7232078 -0.367825E-06  0.127E-02    3.67       2.6  T
   3    -19.7232078  0.207887E-07  0.448E-03    3.67       7.4  T
   4    -19.7232078 -0.519627E-07  0.162E-03    3.67      20.6  T
   5    -19.7232078 -0.998073E-08  0.818E-04    3.67      40.8  T
   6    -19.7232078 -0.401617E-08  0.279E-04    3.67     119.5  T
     SCC iter.                  ...        0 min,  0.099 sec
     gradient                   ...        0 min,  0.001 sec
 * total energy  :   -19.3824957 Eh     change       -0.1260276E-04 Eh
   gradient norm :     0.0013459 Eh/α   predicted     0.0000000E+00 (-100.00%)
   displ. norm   :     0.0372746 α      lambda       -0.1011835E-04
   maximum displ.:     0.0315200 α      in ANC's #1, #3, #2, ...

........................................................................
.............................. CYCLE   22 ..............................
........................................................................

 iter      E             dE          RMSdq      gap      omega  full diag
   1    -19.7233599 -0.197234E+02  0.118E-01    3.68       0.0  T
   2    -19.7233617 -0.177081E-05  0.651E-02    3.67       1.0  T
   3    -19.7233621 -0.367622E-06  0.697E-03    3.68       4.8  T
   4    -19.7233624 -0.290065E-06  0.268E-03    3.67      12.5  T
   5    -19.7233624 -0.109304E-07  0.143E-03    3.67      23.4  T
   6    -19.7233624 -0.105659E-07  0.411E-04    3.67      81.2  T
   7    -19.7233624 -0.144357E-09  0.237E-04    3.67     140.8  T
     SCC iter.                  ...        0 min,  0.107 sec
     gradient                   ...        0 min,  0.001 sec
 * total energy  :   -19.3824799 Eh     change        0.1578610E-04 Eh
   gradient norm :     0.0024211 Eh/α   predicted    -0.5063492E-05 (-132.08%)
   displ. norm   :     0.0181839 α      lambda       -0.2606195E-04
   maximum displ.:     0.0164956 α      in ANC's #1, #5, #3, ...

........................................................................
.............................. CYCLE   23 ..............................
........................................................................

 iter      E             dE          RMSdq      gap      omega  full diag
   1    -19.7236124 -0.197236E+02  0.605E-02    3.68       0.0  T
   2    -19.7236129 -0.435719E-06  0.335E-02    3.68       1.0  T
   3    -19.7236130 -0.137208E-06  0.247E-03    3.68      13.5  T
   4    -19.7236130 -0.295246E-07  0.120E-03    3.68      27.8  T
   5    -19.7236130 -0.309847E-08  0.559E-04    3.68      59.6  T
   6    -19.7236130 -0.186197E-08  0.128E-04    3.68     260.3  T
     SCC iter.                  ...        0 min,  0.098 sec
     gradient                   ...        0 min,  0.001 sec
 * total energy  :   -19.3824970 Eh     change       -0.1711429E-04 Eh
   gradient norm :     0.0009826 Eh/α   predicted    -0.1303648E-04 ( -23.83%)
   displ. norm   :     0.0159945 α      lambda       -0.5414192E-05
   maximum displ.:     0.0114139 α      in ANC's #1, #2, #4, ...

........................................................................
.............................. CYCLE   24 ..............................
........................................................................

 iter      E             dE          RMSdq      gap      omega  full diag
   1    -19.7233511 -0.197234E+02  0.510E-02    3.67       0.0  T
   2    -19.7233514 -0.321101E-06  0.284E-02    3.68       1.2  T
   3    -19.7233515 -0.483199E-07  0.346E-03    3.67       9.6  T
   4    -19.7233515 -0.650479E-07  0.142E-03    3.68      23.4  T
   5    -19.7233515 -0.458052E-08  0.731E-04    3.68      45.6  T
   6    -19.7233515 -0.218033E-08  0.210E-04    3.68     158.7  T
     SCC iter.                  ...        0 min,  0.097 sec
     gradient                   ...        0 min,  0.001 sec
 * total energy  :   -19.3824976 Eh     change       -0.5564397E-06 Eh
   gradient norm :     0.0009167 Eh/α   predicted    -0.2706338E-05 ( 386.37%)
   displ. norm   :     0.0176334 α      lambda       -0.4154955E-05
   maximum displ.:     0.0167744 α      in ANC's #2, #4, #8, ...

........................................................................
.............................. CYCLE   25 ..............................
........................................................................

 iter      E             dE          RMSdq      gap      omega  full diag
   1    -19.7234032 -0.197234E+02  0.508E-02    3.67       0.0  T
   2    -19.7234034 -0.227074E-06  0.285E-02    3.67       1.2  T
   3    -19.7234035 -0.882219E-07  0.164E-03    3.67      20.3  T
   4    -19.7234035 -0.293461E-09  0.106E-03    3.67      31.5  T
   5    -19.7234035 -0.442481E-08  0.285E-04    3.67     116.8  T
   6    -19.7234035 -0.325045E-09  0.138E-04    3.67     241.8  T
     SCC iter.                  ...        0 min,  0.100 sec
     gradient                   ...        0 min,  0.001 sec
 * total energy  :   -19.3824980 Eh     change       -0.4431185E-06 Eh
   gradient norm :     0.0007710 Eh/α   predicted    -0.2079128E-05 ( 369.20%)
   displ. norm   :     0.0108499 α      lambda       -0.3621240E-05
   maximum displ.:     0.0069380 α      in ANC's #3, #2, #1, ...

........................................................................
.............................. CYCLE   26 ..............................
........................................................................

 iter      E             dE          RMSdq      gap      omega  full diag
   1    -19.7236665 -0.197237E+02  0.350E-02    3.68       0.0  T
   2    -19.7236666 -0.138606E-06  0.194E-02    3.68       1.7  T
   3    -19.7236666 -0.209009E-07  0.217E-03    3.68      15.4  T
   4    -19.7236667 -0.325182E-07  0.752E-04    3.68      44.3  T
   5    -19.7236667 -0.162225E-08  0.300E-04    3.68     111.0  T
     SCC iter.                  ...        0 min,  0.096 sec
     gradient                   ...        0 min,  0.001 sec
 * total energy  :   -19.3824996 Eh     change       -0.1645488E-05 Eh
   gradient norm :     0.0007051 Eh/α   predicted    -0.1810301E-05 (  10.02%)
   displ. norm   :     0.0082588 α      lambda       -0.1827014E-05
   maximum displ.:     0.0050581 α      in ANC's #4, #1, #5, ...

........................................................................
.............................. CYCLE   27 ..............................
........................................................................

 iter      E             dE          RMSdq      gap      omega  full diag
   1    -19.7235059 -0.197235E+02  0.202E-02    3.68       0.0  T
   2    -19.7235059 -0.257845E-07  0.119E-02    3.68       2.8  T
   3    -19.7235059 -0.152898E-08  0.136E-03    3.68      24.5  T
   4    -19.7235060 -0.648882E-08  0.659E-04    3.68      50.6  T
   5    -19.7235060 -0.950653E-09  0.211E-04    3.68     157.8  T
     SCC iter.                  ...        0 min,  0.103 sec
     gradient                   ...        0 min,  0.002 sec
 * total energy  :   -19.3824995 Eh     change        0.1490888E-06 Eh
   gradient norm :     0.0006664 Eh/α   predicted    -0.9147608E-06 (-713.57%)
   displ. norm   :     0.0101691 α      lambda       -0.1949552E-05
   maximum displ.:     0.0074047 α      in ANC's #1, #3, #4, ...

........................................................................
.............................. CYCLE   28 ..............................
........................................................................

 iter      E             dE          RMSdq      gap      omega  full diag
   1    -19.7233732 -0.197234E+02  0.248E-02    3.67       0.0  T
   2    -19.7233733 -0.554046E-07  0.141E-02    3.68       2.4  T
   3    -19.7233733 -0.687655E-08  0.168E-03    3.68      19.9  T
   4    -19.7233733 -0.147265E-07  0.729E-04    3.68      45.7  T
   5    -19.7233733 -0.727859E-09  0.348E-04    3.68      95.7  T
     SCC iter.                  ...        0 min,  0.101 sec
     gradient                   ...        0 min,  0.001 sec
 * total energy  :   -19.3825009 Eh     change       -0.1420257E-05 Eh
   gradient norm :     0.0004498 Eh/α   predicted    -0.9755727E-06 ( -31.31%)
   displ. norm   :     0.0074818 α      lambda       -0.4909883E-06
   maximum displ.:     0.0047668 α      in ANC's #4, #3, #2, ...

........................................................................
.............................. CYCLE   29 ..............................
........................................................................

 iter      E             dE          RMSdq      gap      omega  full diag
   1    -19.7235561 -0.197236E+02  0.142E-02    3.68       0.0  T
   2    -19.7235561 -0.849471E-08  0.830E-03    3.68       4.0  T
   3    -19.7235561  0.361519E-07  0.244E-03    3.68      13.7  T
   4    -19.7235561 -0.428612E-07  0.349E-04    3.68      95.6  T
   5    -19.7235561  0.963851E-11  0.216E-04    3.68     154.5  T
     SCC iter.                  ...        0 min,  0.101 sec
     gradient                   ...        0 min,  0.001 sec
 * total energy  :   -19.3825014 Eh     change       -0.5147466E-06 Eh
   gradient norm :     0.0002721 Eh/α   predicted    -0.2442783E-06 ( -52.54%)
   displ. norm   :     0.0206450 α      lambda       -0.7479886E-06
   maximum displ.:     0.0147025 α      in ANC's #4, #3, #2, ...

........................................................................
.............................. CYCLE   30 ..............................
........................................................................

 iter      E             dE          RMSdq      gap      omega  full diag
   1    -19.7235581 -0.197236E+02  0.378E-02    3.68       0.0  T
   2    -19.7235581 -0.336920E-07  0.223E-02    3.68       1.5  T
   3    -19.7235580  0.143452E-06  0.495E-03    3.68       6.7  T
   4    -19.7235581 -0.171600E-06  0.721E-04    3.68      46.2  T
   5    -19.7235581 -0.297906E-09  0.253E-04    3.68     131.7  T
     SCC iter.                  ...        0 min,  0.102 sec
     gradient                   ...        0 min,  0.003 sec
 * total energy  :   -19.3825023 Eh     change       -0.8823528E-06 Eh
   gradient norm :     0.0002782 Eh/α   predicted    -0.3756462E-06 ( -57.43%)
   displ. norm   :     0.0376577 α      lambda       -0.9777598E-06
   maximum displ.:     0.0276947 α      in ANC's #4, #3, #2, ...

........................................................................
.............................. CYCLE   31 ..............................
........................................................................

 iter      E             dE          RMSdq      gap      omega  full diag
   1    -19.7235656 -0.197236E+02  0.694E-02    3.67       0.0  T
   2    -19.7235657 -0.115762E-06  0.409E-02    3.67       1.0  T
   3    -19.7235653  0.455828E-06  0.886E-03    3.67       3.8  T
   4    -19.7235658 -0.545166E-06  0.130E-03    3.67      25.6  T
   5    -19.7235658 -0.149445E-08  0.435E-04    3.67      76.6  T
   6    -19.7235658 -0.578098E-10  0.250E-04    3.67     133.2  T
     SCC iter.                  ...        0 min,  0.101 sec
     gradient                   ...        0 min,  0.001 sec
 * total energy  :   -19.3825032 Eh     change       -0.8603077E-06 Eh
   gradient norm :     0.0004902 Eh/α   predicted    -0.4882092E-06 ( -43.25%)
   displ. norm   :     0.0125360 α      lambda       -0.2076044E-06
   maximum displ.:     0.0093419 α      in ANC's #4, #3, #2, ...

........................................................................
.............................. CYCLE   32 ..............................
........................................................................

 iter      E             dE          RMSdq      gap      omega  full diag
   1    -19.7234826 -0.197235E+02  0.231E-02    3.68       0.0  T
   2    -19.7234826 -0.129155E-07  0.136E-02    3.68       2.4  T
   3    -19.7234826  0.404746E-07  0.267E-03    3.68      12.5  T
   4    -19.7234826 -0.493579E-07  0.431E-04    3.68      77.3  T
   5    -19.7234826 -0.139728E-10  0.208E-04    3.68     160.6  T
     SCC iter.                  ...        0 min,  0.160 sec
     gradient                   ...        0 min,  0.002 sec
 * total energy  :   -19.3825033 Eh     change       -0.1598212E-06 Eh
   gradient norm :     0.0001613 Eh/α   predicted    -0.1039501E-06 ( -34.96%)
   displ. norm   :     0.0043825 α      lambda       -0.2552629E-07
   maximum displ.:     0.0034031 α      in ANC's #4, #3, #2, ...

........................................................................
.............................. CYCLE   33 ..............................
........................................................................

 iter      E             dE          RMSdq      gap      omega  full diag
   1    -19.7234965 -0.197235E+02  0.808E-03    3.68       0.0  T
   2    -19.7234965 -0.202912E-08  0.476E-03    3.68       7.0  T
   3    -19.7234965  0.767015E-08  0.114E-03    3.68      29.3  T
   4    -19.7234965 -0.909034E-08  0.171E-04    3.68     194.7  T
   5    -19.7234965 -0.216716E-12  0.103E-04    3.68     323.0  T
     SCC iter.                  ...        0 min,  0.101 sec
     gradient                   ...        0 min,  0.001 sec
 * total energy  :   -19.3825034 Eh     change       -0.2482913E-07 Eh
   gradient norm :     0.0000472 Eh/α   predicted    -0.1318808E-07 ( -46.88%)
   displ. norm   :     0.0009688 α      lambda       -0.7031966E-08
   maximum displ.:     0.0006634 α      in ANC's #4, #2, #5, ...

   *** GEOMETRY OPTIMIZATION CONVERGED AFTER 33 ITERATIONS ***

------------------------------------------------------------------------
 total energy gain   :        -0.0061663 Eh       -3.8694 kcal/mol
 total RMSD          :         0.5584365 a0        0.2955 Å
 total power (kW/mol):        -0.4905962 (step)   -4.1679 (real)
------------------------------------------------------------------------

 ANCopt (total)                0 d,  0 h,  0 min,  3.884 sec
 optimizer setup                ...        0 min,  0.000 sec (  0.003%)
 model hessian                  ...        0 min,  0.002 sec (  0.043%)
 ANC generation                 ...        0 min,  0.001 sec (  0.014%)
 coordinate transformation      ...        0 min,  0.000 sec (  0.009%)
 single point calculation       ...        0 min,  3.873 sec ( 99.715%)
 optimization log               ...        0 min,  0.002 sec (  0.060%)
 hessian update                 ...        0 min,  0.002 sec (  0.053%)
 rational function              ...        0 min,  0.002 sec (  0.057%)

================
 final structure:
================
9
 xtb: 6.7.0 (08769fc)
O           -1.85383037817065        1.57087744140343       -0.23223636371407
C           -0.99762923829709        0.94604534254961        0.30971966917535
C            0.01738944207943        0.07489266765385       -0.44917414044941
C           -0.10627734421085       -1.29992980556638       -0.00415743064731
N           -0.21273095941424       -2.37884356820869        0.35109576302139
C            1.35871491667780        0.55055125311157       -0.16993002903414
N            2.40940451843855        0.93434171811693        0.05447000436371
H           -0.85178648542219        0.93234028729228        1.40232984331834
H           -0.17604928938077        0.13095958664741       -1.53010756923388
 
 Bond Distances (Angstroems)
 ---------------------------
O1-C2=1.1905         C2-O1=1.1905         C2-C3=1.5379         C2-H8=1.1024         C3-C2=1.5379         C3-C4=1.4503         
C3-C6=1.4503         C3-H9=1.0995         C4-C3=1.4503         C4-N5=1.1409         N5-C4=1.1409         C6-C3=1.4503         
C6-N7=1.1409         N7-C6=1.1409         H8-C2=1.1024         H9-C3=1.0995         
 C  H  Rav=1.1010 sigma=0.0014  Rmin=1.0995  Rmax=1.1024     2
 C  C  Rav=1.4795 sigma=0.0413  Rmin=1.4503  Rmax=1.5379     3
 N  C  Rav=1.1409 sigma=0.0000  Rmin=1.1409  Rmax=1.1409     2
 O  C  Rav=1.1905 sigma=0.0000  Rmin=1.1905  Rmax=1.1905     1
 
 selected bond angles (degree)
 --------------------
C3-C2-O1=123.19                H8-C2-O1=123.57                H8-C2-C3=113.25                C4-C3-C2=109.22                
C6-C3-C2=109.25                C6-C3-C4=109.31                H9-C3-C2=109.88                H9-C3-C4=109.57                
H9-C3-C6=109.59                N5-C4-C3=179.46                N7-C6-C3=179.42                
 
 selected dihedral angles (degree)
 ---------------------------------
C4-C3-C2-O1=239.95            C4-C3-C2-H8= 59.94            C6-C3-C2-O1=120.44            C6-C3-C2-H8=300.42            
H9-C3-C2-O1=  0.18            H9-C3-C2-H8=180.16            N5-C4-C3-C2= 11.13            N5-C4-C3-C6=130.61            
N5-C4-C3-H9=250.71            N7-C6-C3-C2=347.67            N7-C6-C3-C4=228.20            N7-C6-C3-H9=108.11            
           -------------------------------------------------
          |                Final Singlepoint                |
           -------------------------------------------------

          ...................................................
          :                      SETUP                      :
          :.................................................:
          :  # basis functions                  30          :
          :  # atomic orbitals                  30          :
          :  # shells                           16          :
          :  # electrons                        34          :
          :  max. iterations                  4000          :
          :  Hamiltonian                  GFN2-xTB          :
          :  restarted?                      false          :
          :  GBSA solvation                   true          :
          :  PC potential                    false          :
          :  electronic temp.          300.0000000     K    :
          :  accuracy                    1.0000000          :
          :  -> integral cutoff          0.2500000E+02      :
          :  -> integral neglect         0.1000000E-07      :
          :  -> SCF convergence          0.1000000E-05 Eh   :
          :  -> wf. convergence          0.1000000E-03 e    :
          :  Broyden damping             0.4000000          :
          :  net charge                          0          :
          :  unpaired electrons                  0          :
          ...................................................

 iter      E             dE          RMSdq      gap      omega  full diag
   1    -19.7234965 -0.197235E+02  0.467E-05    3.68       0.0  T
   2    -19.7234965 -0.632383E-12  0.365E-05    3.68     914.2  T
   3    -19.7234965 -0.571632E-11  0.214E-05    3.68    1560.0  T

   *** convergence criteria satisfied after 3 iterations ***

         #    Occupation            Energy/Eh            Energy/eV
      -------------------------------------------------------------
         1        2.0000           -0.7763723             -21.1262
       ...           ...                  ...                  ...
        11        2.0000           -0.5289350             -14.3931
        12        2.0000           -0.5269350             -14.3386
        13        2.0000           -0.5210858             -14.1795
        14        2.0000           -0.5133387             -13.9687
        15        2.0000           -0.4740149             -12.8986
        16        2.0000           -0.4671160             -12.7109
        17        2.0000           -0.4563385             -12.4176 (HOMO)
        18                         -0.3212696              -8.7422 (LUMO)
        19                         -0.2661670              -7.2428
        20                         -0.2524933              -6.8707
        21                         -0.2454323              -6.6786
        22                         -0.2300264              -6.2593
       ...                                ...                  ...
        30                          1.1255104              30.6267
      -------------------------------------------------------------
                  HL-Gap            0.1350689 Eh            3.6754 eV
             Fermi-level           -0.3888040 Eh          -10.5799 eV

 SCC (total)                   0 d,  0 h,  0 min,  0.099 sec
 SCC setup                      ...        0 min,  0.000 sec (  0.153%)
 Dispersion                     ...        0 min,  0.000 sec (  0.033%)
 classical contributions        ...        0 min,  0.000 sec (  0.010%)
 integral evaluation            ...        0 min,  0.000 sec (  0.459%)
 iterations                     ...        0 min,  0.097 sec ( 98.282%)
 molecular gradient             ...        0 min,  0.001 sec (  0.926%)
 printout                       ...        0 min,  0.000 sec (  0.099%)

         :::::::::::::::::::::::::::::::::::::::::::::::::::::
         ::                     SUMMARY                     ::
         :::::::::::::::::::::::::::::::::::::::::::::::::::::
         :: total energy             -19.382503358652 Eh    ::
         :: total w/o Gsasa/hb       -19.373239955730 Eh    ::
         :: gradient norm              0.000047794520 Eh/a0 ::
         :: HOMO-LUMO gap              3.675412059444 eV    ::
         ::.................................................::
         :: SCC energy               -19.723489516908 Eh    ::
         :: -> isotropic ES            0.035681629647 Eh    ::
         :: -> anisotropic ES          0.002822775520 Eh    ::
         :: -> anisotropic XC          0.034091738585 Eh    ::
         :: -> dispersion             -0.005773808392 Eh    ::
         :: -> Gsolv                  -0.011158680988 Eh    ::
         ::    -> Gelec               -0.001895278066 Eh    ::
         ::    -> Gsasa               -0.011471546060 Eh    ::
         ::    -> Ghb                  0.000000000000 Eh    ::
         ::    -> Gshift               0.002208143139 Eh    ::
         :: repulsion energy           0.340986158256 Eh    ::
         :: add. restraining           0.000000000000 Eh    ::
         :: total charge               0.000000000000 e     ::
         :::::::::::::::::::::::::::::::::::::::::::::::::::::

           -------------------------------------------------
          |                Property Printout                |
           -------------------------------------------------

    * Orbital Energies and Occupations

         #    Occupation            Energy/Eh            Energy/eV
      -------------------------------------------------------------
         1        2.0000           -0.7763723             -21.1262
       ...           ...                  ...                  ...
         5        2.0000           -0.6592638             -17.9395
         6        2.0000           -0.6279430             -17.0872
         7        2.0000           -0.6247353             -16.9999
         8        2.0000           -0.5944357             -16.1754
         9        2.0000           -0.5809710             -15.8090
        10        2.0000           -0.5688665             -15.4796
        11        2.0000           -0.5289350             -14.3931
        12        2.0000           -0.5269350             -14.3386
        13        2.0000           -0.5210858             -14.1795
        14        2.0000           -0.5133387             -13.9687
        15        2.0000           -0.4740149             -12.8986
        16        2.0000           -0.4671160             -12.7109
        17        2.0000           -0.4563385             -12.4176 (HOMO)
        18                         -0.3212696              -8.7422 (LUMO)
        19                         -0.2661670              -7.2428
        20                         -0.2524933              -6.8707
        21                         -0.2454323              -6.6786
        22                         -0.2300264              -6.2593
        23                          0.0335156               0.9120
        24                          0.0745227               2.0279
        25                          0.1178657               3.2073
        26                          0.1380908               3.7576
        27                          0.1881011               5.1185
        28                          0.5840792              15.8936
       ...                                ...                  ...
        30                          1.1255104              30.6267
      -------------------------------------------------------------
                  HL-Gap            0.1350689 Eh            3.6754 eV
             Fermi-level           -0.3888040 Eh          -10.5799 eV

     #   Z          covCN         q      C6AA      α(0)
     1   8 O        0.856    -0.279    19.405     5.906
     2   6 C        2.772     0.235    23.082     7.869
     3   6 C        3.856    -0.013    20.773     6.482
     4   6 C        1.925     0.133    27.852     8.523
     5   7 N        0.911    -0.195    25.230     7.265
     6   6 C        1.925     0.133    27.853     8.523
     7   7 N        0.911    -0.195    25.230     7.265
     8   1 H        0.923     0.056     2.243     2.342
     9   1 H        0.923     0.125     1.573     1.961

 Mol. C6AA /au·bohr⁶  :       1371.597930
 Mol. C8AA /au·bohr⁸  :      33579.622625
 Mol. α(0) /au        :         56.135432


Wiberg/Mayer (AO) data.
largest (>0.10) Wiberg bond orders for each atom

 ---------------------------------------------------------------------------
     #   Z sym  total        # sym  WBO       # sym  WBO       # sym  WBO
 ---------------------------------------------------------------------------
     1   8 O    2.153 --     2 C    1.972
     2   6 C    3.912 --     1 O    1.972     8 H    0.933     3 C    0.913
     3   6 C    3.994 --     6 C    0.999     4 C    0.999     2 C    0.913
                             9 H    0.905
     4   6 C    3.950 --     5 N    2.863     3 C    0.999
     5   7 N    3.038 --     4 C    2.863
     6   6 C    3.950 --     7 N    2.863     3 C    0.999
     7   7 N    3.038 --     6 C    2.863
     8   1 H    0.997 --     2 C    0.933
     9   1 H    0.984 --     3 C    0.905
 ---------------------------------------------------------------------------

Topologies differ in total number of bonds
Writing topology from bond orders to xtbtopo.mol

molecular dipole:
                 x           y           z       tot (Debye)
 q only:       -0.093       0.064      -0.134
   full:       -0.364       0.265      -0.282       1.350
molecular quadrupole (traceless):
                xx          xy          yy          xz          yz          zz
 q only:       -3.748       0.660      -3.007      -1.434       1.932       6.755
  q+dip:       -5.802       0.120      -4.999      -1.765       2.735      10.801
   full:       -6.046      -0.259      -5.304      -2.339       3.291      11.350

           -------------------------------------------------
          |                Geometry Summary                 |
           -------------------------------------------------

      molecular mass/u    :       94.0716364
   center of mass at/Å    :        0.0355184       0.0981568      -0.0205127
  moments of inertia/u·Å² :        0.1689550E+03   0.1891461E+03   0.3387165E+03
rotational constants/cm⁻¹ :        0.9977585E-01   0.8912493E-01   0.4976914E-01

 * 5 selected distances

     #   Z          #   Z                                           value/Å
     1   8 O        2   6 C                                       1.1904672 (max)
     4   6 C        5   7 N                                       1.1408735
     6   6 C        7   7 N                                       1.1408766
     2   6 C        8   1 H                                       1.1023861
     3   6 C        9   1 H                                       1.0995360 (min)

 * 3 distinct bonds (by element types)

   Z      Z             #   av. dist./Å        max./Å        min./Å
   1 H    6 C           2     1.1009610     1.1023861     1.0995360
   6 C    7 N           2     1.1408750     1.1408766     1.1408735
   6 C    8 O           1     1.1904672     1.1904672     1.1904672


optimized geometry written to: xtbopt.xyz


           -------------------------------------------------
          | TOTAL ENERGY              -19.382503358652 Eh   |
          | GRADIENT NORM               0.000047794520 Eh/α |
          | HOMO-LUMO GAP               3.675412059444 eV   |
           -------------------------------------------------

------------------------------------------------------------------------
 * finished run on 2024/08/07 at 20:23:00.782     
------------------------------------------------------------------------
 total:
 * wall-time:     0 d,  0 h,  0 min,  4.110 sec
 *  cpu-time:     0 d,  0 h,  0 min, 29.662 sec
 * ratio c/w:     7.218 speedup
 SCF:
 * wall-time:     0 d,  0 h,  0 min,  0.115 sec
 *  cpu-time:     0 d,  0 h,  0 min,  0.883 sec
 * ratio c/w:     7.666 speedup
 ANC optimizer:
 * wall-time:     0 d,  0 h,  0 min,  3.984 sec
 *  cpu-time:     0 d,  0 h,  0 min, 28.711 sec
 * ratio c/w:     7.206 speedup

