9
 energy: -19.376337037637 gnorm: 0.109425988064 xtb: 6.7.0 (08769fc)
O           -2.09506747950000        1.07800658900000       -0.05812599200000
C           -0.96793133380000        0.95355571620000        0.30972457480000
C            0.04763093900000        0.09398313780000       -0.39138670200000
C           -0.13961519660000       -1.27953705040000       -0.08304364900000
N           -0.28574175490000       -2.39838241870000        0.17488861980000
C            1.38006028350000        0.49336361980000       -0.10359041890000
N            2.46300404370000        0.82057948150000        0.14002752010000
H           -0.69510885990000        1.48223492480000        1.22099954170000
H           -0.12002545920000        0.21743092300000       -1.47748374770000
9
 energy: -19.380555411088 gnorm: 0.025298338558 xtb: 6.7.0 (08769fc)
O           -2.11335898737195        1.08613717245937       -0.06825122039231
C           -0.98756357199469        0.95065565201817        0.31547198748589
C            0.04775843719826        0.09932160143174       -0.40604480808929
C           -0.14942869025813       -1.28927504231497       -0.07506440768207
N           -0.28526415973623       -2.39017633033159        0.17910523193423
C            1.39900164803405        0.49111066400348       -0.09672697584950
N            2.45684319714270        0.83465685491341        0.14658270804048
H           -0.66123525987251        1.46749401513281        1.23035496386544
H           -0.11954743084150        0.21131033568759       -1.49341773251286
9
 energy: -19.381350317642 gnorm: 0.014772797004 xtb: 6.7.0 (08769fc)
O           -2.12606998583766        1.07860529489236       -0.07012628095246
C           -0.99920559706173        0.95642916106531        0.30753162556000
C            0.04764679796504        0.11379126285483       -0.43032906476920
C           -0.14131317932383       -1.28480424029820       -0.08066246707344
N           -0.30173770539241       -2.37348283282097        0.21699964502672
C            1.40286401982234        0.51809471652548       -0.10544816420777
N            2.46848789629064        0.82056701150162        0.16156063909144
H           -0.64425397889900        1.41988517340587        1.24897502389443
H           -0.11921308526339        0.21214937587370       -1.51649120976973
9
 energy: -19.381494025513 gnorm: 0.008376040539 xtb: 6.7.0 (08769fc)
O           -2.12117378985979        1.09958081754221       -0.07994052714422
C           -1.00537257788541        0.95386807804868        0.31163885955785
C            0.04372576605230        0.11413014148561       -0.43814073737268
C           -0.15892195561934       -1.28164891398160       -0.06519597817914
N           -0.29092825760928       -2.38009368571335        0.21206573131588
C            1.40309974170463        0.50482827128305       -0.10066340443711
N            2.46032807969194        0.84595784026207        0.16334565593499
H           -0.62458442807337        1.40120130116395        1.25195729152857
H           -0.11896739610169        0.20341107290940       -1.52305714440415
9
 energy: -19.381628364699 gnorm: 0.004443545796 xtb: 6.7.0 (08769fc)
O           -2.11747754452577        1.09983863083352       -0.08339840520923
C           -1.00513835910597        0.94807057809361        0.31317302618785
C            0.04644636224691        0.11573572527469       -0.44129253857691
C           -0.14640929770323       -1.27965625128233       -0.07448373887907
N           -0.30358723151340       -2.36847030996192        0.22960325142458
C            1.40103048836360        0.51266748224991       -0.10621400695083
N            2.46064807670847        0.84054041813216        0.16216577862109
H           -0.63012529987851        1.38461726675962        1.25722367173028
H           -0.11818201229211        0.20789138290074       -1.52476729154777
9
 energy: -19.381692115105 gnorm: 0.004190433400 xtb: 6.7.0 (08769fc)
O           -2.11241371934119        1.11240357468485       -0.09303830381553
C           -1.00352999259531        0.95353936627033        0.30864850854054
C            0.04696713161993        0.11788665608144       -0.44323976805506
C           -0.14599734290292       -1.27131172159353       -0.06576829546602
N           -0.29406150373850       -2.36050955118483        0.23716299897217
C            1.39716646385146        0.51996969466641       -0.11422836675542
N            2.46131412002059        0.82800446998792        0.15803710214655
H           -0.64199469694345        1.35632835418652        1.27071337613920
H           -0.12024527767060        0.20492407990088       -1.52627750490644
9
 energy: -19.381785695869 gnorm: 0.004275624350 xtb: 6.7.0 (08769fc)
O           -2.10238814023963        1.13549060249315       -0.10817761161046
C           -1.00242769818559        0.95008020123986        0.30926750855686
C            0.04873129570638        0.11662652095883       -0.44740098025864
C           -0.14354185424401       -1.26945435388617       -0.06357681803768
N           -0.29995514178450       -2.35463510258701        0.25235813128044
C            1.39746118807134        0.51800263928574       -0.11863573820588
N            2.45739960472697        0.84263815202758        0.15083393769891
H           -0.64730628640940        1.31980856815814        1.28698649957128
H           -0.12076778534157        0.20267769530989       -1.52964518219485
9
 energy: -19.381828737850 gnorm: 0.019145002183 xtb: 6.7.0 (08769fc)
O           -2.07525666848599        1.20655873028557       -0.14981654267150
C           -1.00389852072676        0.93850045737172        0.31462038523716
C            0.04907696945753        0.11336021794137       -0.45589593262478
C           -0.13868051278343       -1.26576860250663       -0.05095609341023
N           -0.29522082427452       -2.34619485151863        0.28295554113861
C            1.39461926545815        0.52451289725090       -0.13271786961211
N            2.45182863399162        0.86180483669462        0.13598676572116
H           -0.66510807117501        1.23427258546817        1.32450895693147
H           -0.13015508916160        0.19418865201292       -1.53667546390980
9
 energy: -19.381952592477 gnorm: 0.005399003990 xtb: 6.7.0 (08769fc)
O           -2.07894834896378        1.18880952253546       -0.13529530578267
C           -1.00165667301322        0.94303822926116        0.31177548727428
C            0.04877973463590        0.11302989302036       -0.45240598070451
C           -0.14194568976048       -1.26898923920404       -0.05365609683945
N           -0.29774234602847       -2.35147984106092        0.27174746988495
C            1.39759032889126        0.52029016754796       -0.12744389191895
N            2.45342676510220        0.86240408075335        0.13909339333861
H           -0.66411451716468        1.25908756424944        1.31249507865814
H           -0.12818407139873        0.19504454589723       -1.53430040711040
9
 energy: -19.382032441931 gnorm: 0.003536981658 xtb: 6.7.0 (08769fc)
O           -2.06621769131486        1.21562723570423       -0.14667232467564
C           -0.99983601270016        0.94364178499741        0.30972493428529
C            0.04813350544242        0.11132763256538       -0.45359558062695
C           -0.14090384153013       -1.26959839686792       -0.04836178872413
N           -0.29536582313908       -2.35124466388479        0.28031177751112
C            1.39758842891619        0.52290806539011       -0.13218862969491
N            2.45188855530409        0.87014095740606        0.13212557936433
H           -0.67674464443113        1.22852630707067        1.32630623136588
H           -0.13133729424734        0.18990600061886       -1.53564045200500
9
 energy: -19.382123692973 gnorm: 0.019428970403 xtb: 6.7.0 (08769fc)
O           -2.01650697891546        1.32660972213181       -0.18980791308955
C           -0.99713333119084        0.93906023216339        0.30934044899984
C            0.04224909425408        0.10270261381944       -0.45386306645502
C           -0.13315229229425       -1.27585839375647       -0.02944262358695
N           -0.27576478886814       -2.35669615897975        0.30543655343267
C            1.39234320325470        0.53789327782893       -0.14956591380115
N            2.44554468801760        0.89082431289038        0.10830769208884
H           -0.72305112520468        1.12662356048352        1.36731415876239
H           -0.14732328675300        0.17007575641877       -1.53570958955108
9
 energy: -19.382204005576 gnorm: 0.004295745789 xtb: 6.7.0 (08769fc)
O           -2.02890267717236        1.29510307342514       -0.17101991493366
C           -0.99883464902795        0.94107056679891        0.31003439647183
C            0.04132696801193        0.10466684135325       -0.45131847071678
C           -0.13371988243415       -1.27704917993006       -0.03620447917167
N           -0.27641256566778       -2.35987354372121        0.29256098397728
C            1.39137853947477        0.53683648803600       -0.14350354637465
N            2.44756993445927        0.87895311351789        0.11737261369517
H           -0.71175175809927        1.16690930626226        1.34742581838780
H           -0.14344872724448        0.17461825725784       -1.53333765453533
9
 energy: -19.382267360808 gnorm: 0.002866531528 xtb: 6.7.0 (08769fc)
O           -2.01617106220753        1.31953618993561       -0.18095696570609
C           -0.99769548789230        0.94231159564319        0.30864170286213
C            0.04006532423002        0.10288377618049       -0.45283383423633
C           -0.13146883926249       -1.27749594339589       -0.03323155027890
N           -0.27554459531104       -2.35841694977647        0.30148946772816
C            1.38907045893133        0.53629868175348       -0.14649980266676
N            2.44351839825632        0.88906954904160        0.11071140117048
H           -0.72031950094884        1.13750564657892        1.35933569471021
H           -0.14424951349549        0.16954237703907       -1.53464636678292
9
 energy: -19.382281461124 gnorm: 0.014655596315 xtb: 6.7.0 (08769fc)
O           -1.98117195999391        1.39031053360558       -0.20479549105453
C           -0.99687393542736        0.94259177606742        0.30861315991100
C            0.03461770628928        0.09646689292916       -0.45225109316484
C           -0.12463291695043       -1.28238133911321       -0.02357226423834
N           -0.26169756691822       -2.36284650212049        0.31587120456418
C            1.38187017319353        0.54037826159351       -0.15394498704525
N            2.43435540824190        0.90519230098441        0.09495013137697
H           -0.74722200861664        1.07507455276825        1.38093299665623
H           -0.15203971751816        0.15644844628537       -1.53379391020545
9
 energy: -19.382340447917 gnorm: 0.003734817229 xtb: 6.7.0 (08769fc)
O           -1.99230154614323        1.36576191536355       -0.19472274776868
C           -0.99787769689822        0.94362341882096        0.30889241269913
C            0.03566469499866        0.09837233643304       -0.45178772718625
C           -0.12630615962843       -1.28122409163908       -0.02737901061106
N           -0.26420457236831       -2.36247676778192        0.30915319490719
C            1.38300264308193        0.53817855393722       -0.15014662092669
N            2.43646533133983        0.89812977050569        0.10062245811461
H           -0.73786967263291        1.09989225774307        1.37086124276043
H           -0.14936783944933        0.16097752961747       -1.53348345518870
9
 energy: -19.382372223450 gnorm: 0.002548542767 xtb: 6.7.0 (08769fc)
O           -1.98105075317066        1.38599068653834       -0.19963670331889
C           -0.99837319139200        0.94446560684155        0.30917660240911
C            0.03341807447125        0.09613763796278       -0.45109627584810
C           -0.12370374452693       -1.28325347372780       -0.02501161907360
N           -0.25788084967189       -2.36495649643812        0.31180664396632
C            1.38001057440576        0.53934474282778       -0.15137039926763
N            2.43368150949190        0.90048209951109        0.09647603514842
H           -0.74662637447137        1.08538585851731        1.37446094689658
H           -0.15227006283608        0.15763826096707       -1.53279548411223
9
 energy: -19.382415305124 gnorm: 0.009708332804 xtb: 6.7.0 (08769fc)
O           -1.93601721477199        1.46512400711438       -0.22035719516212
C           -0.99926404291142        0.94657032391493        0.30995236211561
C            0.02585403068599        0.08720160155936       -0.44887852949820
C           -0.11465336011252       -1.29074789768469       -0.01538686275756
N           -0.23611966093588       -2.37321118201192        0.32433602709041
C            1.37021599617545        0.54384132066554       -0.15719367229285
N            2.42416041904071        0.91214306999207        0.07886215704018
H           -0.78341266331959        1.02490337049289        1.39111196245342
H           -0.16355832155076        0.14541030895745       -1.53043650218891
9
 energy: -19.382445236544 gnorm: 0.001119849046 xtb: 6.7.0 (08769fc)
O           -1.94158410207077        1.45089734278712       -0.21530995026563
C           -0.99938102499587        0.94652521266946        0.30992132762836
C            0.02712952266574        0.08842414239086       -0.44906980923031
C           -0.11621844135945       -1.28958154321738       -0.01734197335851
N           -0.23913743871379       -2.37189812343338        0.32204772626617
C            1.37183573091598        0.54285634602225       -0.15574045553685
N            2.42622069362599        0.90887424855639        0.08131417286459
H           -0.77979505404891        1.03657532304444        1.38681861373551
H           -0.16186470371892        0.14856197418026       -1.53062990530334
9
 energy: -19.382470970699 gnorm: 0.001731215685 xtb: 6.7.0 (08769fc)
O           -1.91686590306701        1.48756613857322       -0.22346455015099
C           -0.99945380890680        0.94704136455477        0.31015017038644
C            0.02402867607960        0.08408469518660       -0.44828949924418
C           -0.11267159180059       -1.29296870088951       -0.01320050140007
N           -0.23025705675445       -2.37491129268381        0.32935495926579
C            1.36781796965299        0.54488716726297       -0.15871023987671
N            2.42227144808531        0.91483266422511        0.07186974253404
H           -0.80110026318335        1.00665032658992        1.39393805805553
H           -0.16656428780572        0.14405256018073       -1.52963839276986
9
 energy: -19.382483069371 gnorm: 0.005649524527 xtb: 6.7.0 (08769fc)
O           -1.88246527771422        1.53635246969255       -0.23202524776809
C           -0.99898680561648        0.94629069437929        0.31070816570283
C            0.02005468772846        0.07801429401013       -0.44699709604427
C           -0.10920342664611       -1.29819224933660       -0.00828587553007
N           -0.21992343436228       -2.37935763544806        0.33867880974774
C            1.36272218217392        0.54722638245738       -0.16263624796107
N            2.41609503867339        0.92541330344530        0.05987421841519
H           -0.82928635058476        0.96753794172944        1.40077270829467
H           -0.17180143135193        0.13794972207058       -1.52807968805697
9
 energy: -19.382495672135 gnorm: 0.001345879401 xtb: 6.7.0 (08769fc)
O           -1.88032237385914        1.53630350517058       -0.23082522284045
C           -0.99881094705646        0.94601878109662        0.31030739203205
C            0.02038835598796        0.07856823913686       -0.44781359242870
C           -0.10971790753382       -1.29743255286439       -0.00835069100411
N           -0.22082095931295       -2.37795561410032        0.34066701261216
C            1.36291563118431        0.54792947678122       -0.16349179993377
N            2.41619206433341        0.92511813558797        0.05970724187062
H           -0.83154876110697        0.96434620212907        1.40069357349321
H           -0.17106992033636        0.13833875006241       -1.52888416700101
9
 energy: -19.382479886036 gnorm: 0.002421079818 xtb: 6.7.0 (08769fc)
O           -1.87913750147759        1.53806792843374       -0.22771152771967
C           -0.99628736142126        0.94747240133909        0.30950366197738
C            0.01982884573780        0.07905277239350       -0.45092054718466
C           -0.11007089203776       -1.29662229546541       -0.00980341820547
N           -0.21864230272933       -2.37512101017164        0.34602022416939
C            1.36389571532671        0.54773511458422       -0.17388608695973
N            2.41272623245784        0.92465735837218        0.07125203853055
H           -0.83003316184751        0.95921785943822        1.39907993764878
H           -0.17507439170890        0.13677479407610       -1.53152453545658
9
 energy: -19.382497000329 gnorm: 0.000982607040 xtb: 6.7.0 (08769fc)
O           -1.87870119684021        1.53865220461867       -0.22846215976447
C           -0.99742997592456        0.94665511347342        0.30964650693239
C            0.02011682042609        0.07911084671289       -0.44980510268596
C           -0.11007346023014       -1.29666919001210       -0.00898224939601
N           -0.21968813891077       -2.37573420583414        0.34470844127273
C            1.36311976185950        0.54795947365937       -0.16831249455726
N            2.41428696884508        0.92527071808201        0.06485240869631
H           -0.83166921411066        0.95889043511114        1.39914397183329
H           -0.17275638281434        0.13709952718875       -1.53077957553105
9
 energy: -19.382497556769 gnorm: 0.000916674436 xtb: 6.7.0 (08769fc)
O           -1.87734982198044        1.54084393447831       -0.22949652251773
C           -0.99885153073717        0.94519483202806        0.30991442744491
C            0.02017587268553        0.07854808915748       -0.44887636222657
C           -0.10903329213338       -1.29680427331151       -0.00628178951507
N           -0.22112020902988       -2.37760651583836        0.34147196158496
C            1.36233644372706        0.54849406545714       -0.16512721360506
N            2.41465555276462        0.92709190574830        0.06092985118839
H           -0.83204566899579        0.95959572395539        1.39954869052543
H           -0.17156216400056        0.13587716132522       -1.53007329607928
9
 energy: -19.382497999887 gnorm: 0.000771050905 xtb: 6.7.0 (08769fc)
O           -1.87621811161308        1.54267716926780       -0.22937567252683
C           -0.99824778061786        0.94593155841105        0.30968009826935
C            0.02010695941277        0.07885449722330       -0.44949038085603
C           -0.11032928818572       -1.29721192184630       -0.00933785486730
N           -0.21924645216147       -2.37576438938715        0.34635353933213
C            1.36214142632780        0.54812470538818       -0.16421472805266
N            2.41505771254970        0.92642237779500        0.05910212227969
H           -0.83497653205770        0.95484855216064        1.39998260253711
H           -0.17108275135444        0.13735237398750       -1.53068997931548
9
 energy: -19.382499645375 gnorm: 0.000705116526 xtb: 6.7.0 (08769fc)
O           -1.87554434160012        1.54285913441065       -0.22921263127557
C           -0.99735209639336        0.94669589149200        0.30959737114713
C            0.02007509520781        0.07864969422149       -0.44952717672047
C           -0.10937756516831       -1.29677032768070       -0.00719680339042
N           -0.21990417152710       -2.37630255327264        0.34469154700773
C            1.36258339587718        0.54845376593746       -0.16731114066134
N            2.41404440695863        0.92707714889951        0.06167057511364
H           -0.83488239513734        0.95462517941415        1.39985803067950
H           -0.17243714591740        0.13594698957809       -1.53056002510023
9
 energy: -19.382499496286 gnorm: 0.000666412534 xtb: 6.7.0 (08769fc)
O           -1.87404793922277        1.54497332965859       -0.22931067774967
C           -0.99854682230634        0.94501955935581        0.30980828258531
C            0.01958334082303        0.07811494893324       -0.44968769754707
C           -0.10944367742125       -1.29757791802975       -0.00819890474947
N           -0.21874512532769       -2.37675302970292        0.34533494973959
C            1.36195387399181        0.54839959733825       -0.16738380071984
N            2.41319093224149        0.92755485715023        0.06245910868180
H           -0.83391205240837        0.95551889269276        1.39969193964404
H           -0.17282734806992        0.13598468560381       -1.53070345308471
9
 energy: -19.382500916544 gnorm: 0.000449838169 xtb: 6.7.0 (08769fc)
O           -1.87302014999188        1.54646892793783       -0.22980028095717
C           -0.99812674989149        0.94577876613154        0.30972769056781
C            0.01971714871621        0.07807024767601       -0.44933745689191
C           -0.10913258205988       -1.29741325978326       -0.00709726287875
N           -0.21916153319741       -2.37695847480676        0.34520904360001
C            1.36181966490074        0.54865342076861       -0.16625515536300
N            2.41378568944037        0.92824913144261        0.05981709279832
H           -0.83633380279020        0.95284020529082        1.40018767693553
H           -0.17234250282646        0.13554595834261       -1.53044160101086
9
 energy: -19.382501431290 gnorm: 0.000272129949 xtb: 6.7.0 (08769fc)
O           -1.87140779010492        1.54842366002680       -0.22993224640974
C           -0.99781757042533        0.94604280446750        0.30968977669670
C            0.01955674717288        0.07785400367356       -0.44942300447737
C           -0.10895130206355       -1.29757602927097       -0.00697886939456
N           -0.21855898464011       -2.37688063813123        0.34602521158298
C            1.36167203234903        0.54878024258914       -0.16697621931959
N            2.41322663208026        0.92867030721947        0.05969230199454
H           -0.83775485351222        0.95073044694514        1.40040072623023
H           -0.17275972855606        0.13519012548059       -1.53048793010321
9
 energy: -19.382502313643 gnorm: 0.000278313371 xtb: 6.7.0 (08769fc)
O           -1.86664869840401        1.55447242434855       -0.23054098810839
C           -0.99753787845796        0.94619852532012        0.30966619556417
C            0.01898869582405        0.07705158719942       -0.44944664718387
C           -0.10829023399175       -1.29820117365061       -0.00629172061167
N           -0.21703341977121       -2.37729086879486        0.34762895359070
C            1.36097020130207        0.54922599812723       -0.16818399811176
N            2.41206604839017        0.93031986407467        0.05864924430530
H           -0.84152595394060        0.94543556525315        1.40097757172517
H           -0.17378357865076        0.13402300112235       -1.53044886436967
9
 energy: -19.382503173951 gnorm: 0.000490218825 xtb: 6.7.0 (08769fc)
O           -1.85781678355366        1.56579029585397       -0.23179710813641
C           -0.99747745178570        0.94609155975146        0.30971523231730
C            0.01793693241583        0.07552863008869       -0.44928891391758
C           -0.10695843808454       -1.29942270042604       -0.00484888647515
N           -0.21425062861040       -2.37831631628736        0.35008258227238
C            1.35947801278099        0.55010473411951       -0.16948848241763
N            2.41004743107253        0.93333417365575        0.05585736698715
H           -0.84843204131108        0.93625235130306        1.40202036989128
H           -0.17532185062399        0.13187219494096       -1.53024241372136
9
 energy: -19.382503333772 gnorm: 0.000161365876 xtb: 6.7.0 (08769fc)
O           -1.85478347235027        1.56951109896485       -0.23208352387771
C           -0.99754057493306        0.94604268787334        0.30971851294414
C            0.01752488262503        0.07505140867736       -0.44922352492716
C           -0.10649735544934       -1.29980311015690       -0.00434616750339
N           -0.21321991490775       -2.37871013810214        0.35086058355368
C            1.35891257410874        0.55043635562245       -0.16983932372559
N            2.40957635267192        0.93421987905929        0.05487496668833
H           -0.85088905562228        0.93331361740851        1.40221124031124
H           -0.17587825384301        0.13117312365323       -1.53016301666355
9
 energy: -19.382503358601 gnorm: 0.000047441444 xtb: 6.7.0 (08769fc)
O           -1.85383037817065        1.57087744140343       -0.23223636371407
C           -0.99762923829709        0.94604534254961        0.30971966917535
C            0.01738944207943        0.07489266765385       -0.44917414044941
C           -0.10627734421085       -1.29992980556638       -0.00415743064731
N           -0.21273095941424       -2.37884356820869        0.35109576302139
C            1.35871491667780        0.55055125311157       -0.16993002903414
N            2.40940451843855        0.93434171811693        0.05447000436371
H           -0.85178648542219        0.93234028729228        1.40232984331834
H           -0.17604928938077        0.13095958664741       -1.53010756923388
