      -----------------------------------------------------------      
     |                   =====================                   |     
     |                           x T B                           |     
     |                   =====================                   |     
     |                         S. Grimme                         |     
     |          Mulliken Center for Theoretical Chemistry        |     
     |                    University of Bonn                     |     
      -----------------------------------------------------------      

   * xtb version 6.7.0 (08769fc) compiled by 'albert@albert-system' on 2024-03-04

   xtb is free software: you can redistribute it and/or modify it under
   the terms of the GNU Lesser General Public License as published by
   the Free Software Foundation, either version 3 of the License, or
   (at your option) any later version.
   
   xtb is distributed in the hope that it will be useful,
   but WITHOUT ANY WARRANTY; without even the implied warranty of
   MERCHANTABILITY or FITNESS FOR A PARTICULAR PURPOSE.  See the
   GNU Lesser General Public License for more details.
   
   Cite this work as:
   * C. Bannwarth, E. Caldeweyher, S. Ehlert, A. Hansen, P. Pracht,
     J. Seibert, S. Spicher, S. Grimme, WIREs Comput. Mol. Sci., 2020, 11,
     e01493. DOI: 10.1002/wcms.1493
   
   for GFN2-xTB:
   * C. Bannwarth, S. Ehlert and S. Grimme., J. Chem. Theory Comput., 2019,
     15, 1652-1671. DOI: 10.1021/acs.jctc.8b01176
   for GFN1-xTB:
   * S. Grimme, C. Bannwarth, P. Shushkov, J. Chem. Theory Comput., 2017,
     13, 1989-2009. DOI: 10.1021/acs.jctc.7b00118
   for GFN0-xTB:
   * P. Pracht, E. Caldeweyher, S. Ehlert, S. Grimme, ChemRxiv, 2019, preprint.
     DOI: 10.26434/chemrxiv.8326202.v1
   for GFN-FF:
   * S. Spicher and S. Grimme, Angew. Chem. Int. Ed., 2020, 59, 15665-15673.
     DOI: 10.1002/anie.202004239
   
   for ALPB and GBSA implicit solvation:
   * S. Ehlert, M. Stahn, S. Spicher, S. Grimme, J. Chem. Theory Comput.,
     2021, 17, 4250-4261. DOI: 10.1021/acs.jctc.1c00471
   
   for ddCOSMO and CPCM-X implicit solvation:
   * M. Stahn, S. Ehlert, S. Grimme, J. Phys. Chem. A,
     2023, XX, XXXX-XXXX. DOI: 10.1021/acs.jpca.3c04382
   
   for DFT-D4:
   * E. Caldeweyher, C. Bannwarth and S. Grimme, J. Chem. Phys., 2017,
     147, 034112. DOI: 10.1063/1.4993215
   * E. Caldeweyher, S. Ehlert, A. Hansen, H. Neugebauer, S. Spicher,
     C. Bannwarth and S. Grimme, J. Chem. Phys., 2019, 150, 154122.
     DOI: 10.1063/1.5090222
   * E. Caldeweyher, J.-M. Mewes, S. Ehlert and S. Grimme, Phys. Chem. Chem. Phys.
     2020, 22, 8499-8512. DOI: 10.1039/D0CP00502A
   
   for sTDA-xTB:
   * S. Grimme and C. Bannwarth, J. Chem. Phys., 2016, 145, 054103.
     DOI: 10.1063/1.4959605
   
   in the mass-spec context:
   * V. Asgeirsson, C. Bauer and S. Grimme, Chem. Sci., 2017, 8, 4879.
     DOI: 10.1039/c7sc00601b
   * J. Koopman and S. Grimme, ACS Omega 2019, 4, 12, 15120-15133.
     DOI: 10.1021/acsomega.9b02011
   
   for metadynamics refer to:
   * S. Grimme, J. Chem. Theory Comput., 2019, 155, 2847-2862
     DOI: 10.1021/acs.jctc.9b00143
   
   for SPH calculations refer to:
   * S. Spicher and S. Grimme, J. Chem. Theory Comput., 2021, 17, 1701-1714
     DOI: 10.1021/acs.jctc.0c01306
   
   for ONIOM refer to:
   * C. Plett, A. Katbashev, S. Ehlert, S. Grimme, M. Bursch,
     Phys. Chem. Chem. Phys., 2023, 25, 17860-17868. DOI: 10.1039/D3CP02178E
   
   for DIPRO refer to:
   * J. Kohn, N. Gildemeister, S. Grimme, D. Fazzi, A. Hansen,
     J. Chem. Phys., 2023, just accepted.
   
   for PTB refer to:
   * S. Grimme, M. Mueller, A. Hansen, J. Chem. Phys., 2023, 158, 124111.
     DOI: 10.1063/5.0137838
   
   with help from (in alphabetical order)
   P. Atkinson, C. Bannwarth, F. Bohle, G. Brandenburg, E. Caldeweyher
   M. Checinski, S. Dohm, S. Ehlert, S. Ehrlich, I. Gerasimov, C. Hölzer
   A. Katbashev, J. Kohn, J. Koopman, C. Lavigne, S. Lehtola, F. März, M. Müller,
   F. Musil, H. Neugebauer, J. Pisarek, C. Plett, P. Pracht, F. Pultar,
   J. Seibert, P. Shushkov, S. Spicher, M. Stahn, M. Steiner, T. Strunk,
   J. Stückrath, T. Rose, and J. Unsleber
   
 * started run on 2024/08/07 at 20:16:26.230     
   ID    Z sym.   atoms
    1    6 C      1-3, 5, 6
    2    7 N      4
    3    8 O      7
    4    1 H      8-16

           -------------------------------------------------
          |                Calculation Setup                |
           -------------------------------------------------

          program call               : /home/mvotokps/xtb-dist/bin/xtb crest_best.xyz --gfn 2 --alpb toluene --opt vtight -c 0 --iterations 4000
          coordinate file            : crest_best.xyz
          omp threads                :                     8


           -------------------------------------------------
          |                 G F N 2 - x T B                 |
           -------------------------------------------------

        Reference                      10.1021/acs.jctc.8b01176
      * Hamiltonian:
        H0-scaling (s, p, d)           1.850000    2.230000    2.230000
        zeta-weighting                 0.500000
      * Dispersion:
        s8                             2.700000
        a1                             0.520000
        a2                             5.000000
        s9                             5.000000
      * Repulsion:
        kExp                           1.500000    1.000000
        rExp                           1.000000
      * Coulomb:
        alpha                          2.000000
        third order                    shell-resolved
        anisotropic                    true
        a3                             3.000000
        a5                             4.000000
        cn-shift                       1.200000
        cn-exp                         4.000000
        max-rad                        5.000000

      * Solvation model:               ALPB
        Solvent                        toluene
        Parameter file                 internal GFN2-xTB/ALPB
        Dielectric constant                7.0000E+00
        Reference state                gsolv [1 M gas/solution]
        Free energy shift                  2.2081E-03 Eh       1.3856E+00 kcal/mol
        Temperature                        2.9815E+02 K
        Density                            8.6700E-01 kg/L
        Solvent mass                       7.8110E+01 g/mol
        Interaction kernel             P16
        Born radius scaling (c1)           1.7172E+00
        Born radii integrator          GBOBC
        Born offset                        0.0000E+00 a0       0.0000E+00 AA
        H-bond correction              false
        Ion screening                  false
        Surface tension                    1.0000E-05 Eh       1.5569E+01 dyn/cm
        Grid points                               230 per atom

          ...................................................
          :                      SETUP                      :
          :.................................................:
          :  # basis functions                  37          :
          :  # atomic orbitals                  37          :
          :  # shells                           23          :
          :  # electrons                        40          :
          :  max. iterations                  4000          :
          :  Hamiltonian                  GFN2-xTB          :
          :  restarted?                      false          :
          :  GBSA solvation                   true          :
          :  PC potential                    false          :
          :  electronic temp.          300.0000000     K    :
          :  accuracy                    1.0000000          :
          :  -> integral cutoff          0.2500000E+02      :
          :  -> integral neglect         0.1000000E-07      :
          :  -> SCF convergence          0.1000000E-05 Eh   :
          :  -> wf. convergence          0.1000000E-03 e    :
          :  Broyden damping             0.4000000          :
          :  net charge                          0          :
          :  unpaired electrons                  0          :
          ...................................................

 iter      E             dE          RMSdq      gap      omega  full diag
   1    -22.4483783 -0.224484E+02  0.381E+00    3.76       0.0  T
   2    -22.4901894 -0.418111E-01  0.194E+00    2.88       1.0  T
   3    -22.4934875 -0.329813E-02  0.124E+00    3.03       1.0  T
   4    -22.4965445 -0.305699E-02  0.160E-01    2.61       1.0  T
   5    -22.4966691 -0.124598E-03  0.720E-02    2.69       1.0  T
   6    -22.4966896 -0.204883E-04  0.267E-02    2.69       1.0  T
   7    -22.4966908 -0.120728E-05  0.110E-02    2.69       2.3  T
   8    -22.4966911 -0.293123E-06  0.253E-03    2.69       9.9  T
   9    -22.4966911 -0.200449E-07  0.132E-03    2.69      18.9  T
  10    -22.4966911 -0.262481E-08  0.297E-04    2.69      84.2  T
  11    -22.4966911 -0.775795E-09  0.101E-04    2.69     247.3  T

   *** convergence criteria satisfied after 11 iterations ***

         #    Occupation            Energy/Eh            Energy/eV
      -------------------------------------------------------------
         1        2.0000           -0.7378703             -20.0785
       ...           ...                  ...                  ...
        14        2.0000           -0.4768797             -12.9766
        15        2.0000           -0.4728557             -12.8671
        16        2.0000           -0.4595702             -12.5055
        17        2.0000           -0.4396035             -11.9622
        18        2.0000           -0.4379295             -11.9167
        19        2.0000           -0.4134178             -11.2497
        20        2.0000           -0.3787973             -10.3076 (HOMO)
        21                         -0.2800208              -7.6198 (LUMO)
        22                         -0.0947261              -2.5776
        23                          0.0016443               0.0447
        24                          0.0497927               1.3549
        25                          0.0865257               2.3545
       ...                                ...                  ...
        37                          0.6121902              16.6585
      -------------------------------------------------------------
                  HL-Gap            0.0987765 Eh            2.6878 eV
             Fermi-level           -0.3294091 Eh           -8.9637 eV

 SCC (total)                   0 d,  0 h,  0 min,  0.114 sec
 SCC setup                      ...        0 min,  0.000 sec (  0.370%)
 Dispersion                     ...        0 min,  0.000 sec (  0.113%)
 classical contributions        ...        0 min,  0.000 sec (  0.012%)
 integral evaluation            ...        0 min,  0.001 sec (  0.561%)
 iterations                     ...        0 min,  0.111 sec ( 97.450%)
 molecular gradient             ...        0 min,  0.002 sec (  1.327%)
 printout                       ...        0 min,  0.000 sec (  0.120%)

         :::::::::::::::::::::::::::::::::::::::::::::::::::::
         ::                     SUMMARY                     ::
         :::::::::::::::::::::::::::::::::::::::::::::::::::::
         :: total energy             -22.228138392369 Eh    ::
         :: total w/o Gsasa/hb       -22.220092042154 Eh    ::
         :: gradient norm              0.055964670203 Eh/a0 ::
         :: HOMO-LUMO gap              2.687845346527 eV    ::
         ::.................................................::
         :: SCC energy               -22.496665468399 Eh    ::
         :: -> isotropic ES            0.030063212754 Eh    ::
         :: -> anisotropic ES          0.001512570601 Eh    ::
         :: -> anisotropic XC          0.014180105042 Eh    ::
         :: -> dispersion             -0.010485130223 Eh    ::
         :: -> Gsolv                  -0.009487977528 Eh    ::
         ::    -> Gelec               -0.001441627314 Eh    ::
         ::    -> Gsasa               -0.010254493353 Eh    ::
         ::    -> Ghb                  0.000000000000 Eh    ::
         ::    -> Gshift               0.002208143139 Eh    ::
         :: repulsion energy           0.268527076030 Eh    ::
         :: add. restraining           0.000000000000 Eh    ::
         :: total charge              -0.000000000000 e     ::
         :::::::::::::::::::::::::::::::::::::::::::::::::::::

      ----------------------------------------------------------- 
     |                   =====================                   |
     |                        A N C O P T                        |
     |                   =====================                   |
     |               Approximate Normal Coordinate               |
     |                Rational Function Optimizer                |
      ----------------------------------------------------------- 
      ----------------------------------------------------------- 
     |                   =====================                   |
     |                        A N C O P T                        |
     |                   =====================                   |
     |               Approximate Normal Coordinate               |
     |                Rational Function Optimizer                |
      ----------------------------------------------------------- 

          ...................................................
          :                      SETUP                      :
          :.................................................:
          :   optimization level         verytight          :
          :   max. optcycles                   320          :
          :   ANC micro-cycles                  20          :
          :   degrees of freedom                42          :
          :.................................................:
          :   RF solver                   davidson          :
          :   write xtbopt.log                true          :
          :   linear?                        false          :
          :   energy convergence         0.1000000E-06 Eh   :
          :   grad. convergence          0.2000000E-03 Eh/α :
          :   maxmium RF displ.          1.0000000          :
          :   Hlow (freq-cutoff)         0.1000000E-01      :
          :   Hmax (freq-cutoff)         5.0000000          :
          :   S6 in model hess.         20.0000000          :
          ...................................................

generating ANC from model Hessian ...
Using Lindh-Hessian (1995)
 Shifting diagonal of input Hessian by   7.448762868727972E-003
 Lowest  eigenvalues of input Hessian
    0.000000    0.000000    0.000000    0.000000    0.000000    0.000000
    0.010000    0.011536    0.013647    0.017183    0.021451    0.024965
    0.035812    0.039809    0.046050    0.058928    0.062243    0.066202
 Highest eigenvalues
    1.203893    1.243997    1.346056    1.455220    1.787305    2.238152
 

........................................................................
.............................. CYCLE    1 ..............................
........................................................................

 iter      E             dE          RMSdq      gap      omega  full diag
   1    -22.4966911 -0.224967E+02  0.414E-05    2.69       0.0  T
   2    -22.4966911 -0.131948E-10  0.196E-05    2.69    1275.2  T
   3    -22.4966911 -0.383338E-11  0.882E-06    2.69    2832.9  T
     SCC iter.                  ...        0 min,  0.145 sec
     gradient                   ...        0 min,  0.012 sec
 * total energy  :   -22.2281384 Eh     change       -0.1102762E-10 Eh
   gradient norm :     0.0559642 Eh/α   predicted     0.0000000E+00 (-100.00%)
   displ. norm   :     0.4071394 α      lambda       -0.9235891E-02
   maximum displ.:     0.3089402 α      in ANC's #2, #5, #8, ...

........................................................................
.............................. CYCLE    2 ..............................
........................................................................

 iter      E             dE          RMSdq      gap      omega  full diag
   1    -22.5016003 -0.225016E+02  0.320E-01    2.40       0.0  T
   2    -22.5016556 -0.552859E-04  0.195E-01    2.48       1.0  T
   3    -22.5016443  0.113106E-04  0.434E-02    2.48       1.0  T
   4    -22.5016620 -0.177704E-04  0.936E-03    2.49       2.7  T
   5    -22.5016626 -0.589962E-06  0.422E-03    2.49       5.9  T
   6    -22.5016627 -0.348457E-07  0.166E-03    2.49      15.0  T
   7    -22.5016627 -0.395122E-08  0.684E-04    2.49      36.5  T
   8    -22.5016627 -0.796462E-09  0.234E-04    2.49     106.6  T
     SCC iter.                  ...        0 min,  0.117 sec
     gradient                   ...        0 min,  0.002 sec
 * total energy  :   -22.2341268 Eh     change       -0.5988447E-02 Eh
   gradient norm :     0.0252424 Eh/α   predicted    -0.5383430E-02 ( -10.10%)
   displ. norm   :     0.2968111 α      lambda       -0.2641694E-02
   maximum displ.:     0.1925997 α      in ANC's #2, #3, #1, ...

........................................................................
.............................. CYCLE    3 ..............................
........................................................................

 iter      E             dE          RMSdq      gap      omega  full diag
   1    -22.5049085 -0.225049E+02  0.218E-01    2.37       0.0  T
   2    -22.5049171 -0.858722E-05  0.131E-01    2.39       1.0  T
   3    -22.5049172 -0.840639E-07  0.111E-02    2.39       2.3  T
   4    -22.5049183 -0.110300E-05  0.436E-03    2.39       5.7  T
   5    -22.5049183 -0.492319E-07  0.211E-03    2.39      11.9  T
   6    -22.5049183 -0.720587E-08  0.575E-04    2.39      43.5  T
   7    -22.5049184 -0.188978E-08  0.225E-04    2.39     111.3  T
     SCC iter.                  ...        0 min,  0.194 sec
     gradient                   ...        0 min,  0.015 sec
 * total energy  :   -22.2356304 Eh     change       -0.1503606E-02 Eh
   gradient norm :     0.0174338 Eh/α   predicted    -0.1437209E-02 (  -4.42%)
   displ. norm   :     0.2065066 α      lambda       -0.8518456E-03
   maximum displ.:     0.1411524 α      in ANC's #2, #3, #1, ...

........................................................................
.............................. CYCLE    4 ..............................
........................................................................

 iter      E             dE          RMSdq      gap      omega  full diag
   1    -22.5073610 -0.225074E+02  0.130E-01    2.41       0.0  T
   2    -22.5073666 -0.562559E-05  0.769E-02    2.42       1.0  T
   3    -22.5073650  0.160390E-05  0.171E-02    2.42       1.5  T
   4    -22.5073677 -0.267862E-05  0.437E-03    2.42       5.7  T
   5    -22.5073677 -0.641698E-07  0.169E-03    2.42      14.8  T
   6    -22.5073677 -0.554357E-08  0.695E-04    2.42      36.0  T
   7    -22.5073677 -0.108477E-08  0.255E-04    2.42      98.1  T
     SCC iter.                  ...        0 min,  0.211 sec
     gradient                   ...        0 min,  0.011 sec
 * total energy  :   -22.2359990 Eh     change       -0.3685062E-03 Eh
   gradient norm :     0.0080737 Eh/α   predicted    -0.4440856E-03 (  20.51%)
   displ. norm   :     0.0967966 α      lambda       -0.2730162E-03
   maximum displ.:     0.0675899 α      in ANC's #2, #5, #3, ...

........................................................................
.............................. CYCLE    5 ..............................
........................................................................

 iter      E             dE          RMSdq      gap      omega  full diag
   1    -22.5084552 -0.225085E+02  0.859E-02    2.43       0.0  T
   2    -22.5084574 -0.222320E-05  0.510E-02    2.42       1.0  T
   3    -22.5084568  0.602701E-06  0.101E-02    2.42       2.5  T
   4    -22.5084577 -0.939110E-06  0.239E-03    2.42      10.5  T
   5    -22.5084577 -0.217283E-07  0.121E-03    2.42      20.7  T
   6    -22.5084577 -0.830948E-09  0.293E-04    2.42      85.2  T
   7    -22.5084577 -0.211372E-09  0.119E-04    2.42     210.9  T
     SCC iter.                  ...        0 min,  0.190 sec
     gradient                   ...        0 min,  0.004 sec
 * total energy  :   -22.2361562 Eh     change       -0.1572083E-03 Eh
   gradient norm :     0.0036911 Eh/α   predicted    -0.1377873E-03 ( -12.35%)
   displ. norm   :     0.0633034 α      lambda       -0.6146820E-04
   maximum displ.:     0.0391743 α      in ANC's #4, #5, #2, ...

........................................................................
.............................. CYCLE    6 ..............................
........................................................................

 iter      E             dE          RMSdq      gap      omega  full diag
   1    -22.5087448 -0.225087E+02  0.460E-02    2.41       0.0  T
   2    -22.5087450 -0.221779E-06  0.271E-02    2.42       1.0  T
   3    -22.5087450  0.179898E-07  0.284E-03    2.41       8.8  T
   4    -22.5087451 -0.804248E-07  0.909E-04    2.41      27.5  T
   5    -22.5087451 -0.822652E-09  0.383E-04    2.41      65.2  T
     SCC iter.                  ...        0 min,  0.135 sec
     gradient                   ...        0 min,  0.002 sec
 * total energy  :   -22.2362039 Eh     change       -0.4771936E-04 Eh
   gradient norm :     0.0028412 Eh/α   predicted    -0.3085970E-04 ( -35.33%)
   displ. norm   :     0.1313372 α      lambda       -0.8770399E-04
   maximum displ.:     0.0817372 α      in ANC's #4, #5, #2, ...

........................................................................
.............................. CYCLE    7 ..............................
........................................................................

 iter      E             dE          RMSdq      gap      omega  full diag
   1    -22.5085747 -0.225086E+02  0.118E-01    2.41       0.0  T
   2    -22.5085760 -0.133616E-05  0.694E-02    2.41       1.0  T
   3    -22.5085760  0.555990E-07  0.634E-03    2.41       3.9  T
   4    -22.5085763 -0.367252E-06  0.214E-03    2.42      11.7  T
   5    -22.5085764 -0.101512E-07  0.113E-03    2.41      22.2  T
   6    -22.5085764 -0.283515E-08  0.467E-04    2.41      53.5  T
   7    -22.5085764 -0.579131E-09  0.140E-04    2.41     178.5  T
     SCC iter.                  ...        0 min,  0.118 sec
     gradient                   ...        0 min,  0.001 sec
 * total energy  :   -22.2362671 Eh     change       -0.6317653E-04 Eh
   gradient norm :     0.0026572 Eh/α   predicted    -0.4461012E-04 ( -29.39%)
   displ. norm   :     0.1770519 α      lambda       -0.8633905E-04
   maximum displ.:     0.0988164 α      in ANC's #4, #5, #2, ...

........................................................................
.............................. CYCLE    8 ..............................
........................................................................

 iter      E             dE          RMSdq      gap      omega  full diag
   1    -22.5078103 -0.225078E+02  0.192E-01    2.40       0.0  T
   2    -22.5078134 -0.312133E-05  0.113E-01    2.41       1.0  T
   3    -22.5078135 -0.499152E-07  0.887E-03    2.41       2.8  T
   4    -22.5078141 -0.635530E-06  0.328E-03    2.41       7.6  T
   5    -22.5078141 -0.311358E-07  0.176E-03    2.41      14.2  T
   6    -22.5078141 -0.702181E-08  0.735E-04    2.41      34.0  T
   7    -22.5078141 -0.134108E-08  0.195E-04    2.41     128.5  T
     SCC iter.                  ...        0 min,  0.104 sec
     gradient                   ...        0 min,  0.002 sec
 * total energy  :   -22.2363290 Eh     change       -0.6191768E-04 Eh
   gradient norm :     0.0052696 Eh/α   predicted    -0.4452528E-04 ( -28.09%)
   displ. norm   :     0.1905008 α      lambda       -0.9680008E-04
   maximum displ.:     0.0976314 α      in ANC's #5, #3, #4, ...

........................................................................
.............................. CYCLE    9 ..............................
........................................................................

 iter      E             dE          RMSdq      gap      omega  full diag
   1    -22.5068550 -0.225069E+02  0.233E-01    2.40       0.0  T
   2    -22.5068591 -0.413764E-05  0.137E-01    2.41       1.0  T
   3    -22.5068594 -0.272683E-06  0.940E-03    2.41       2.7  T
   4    -22.5068600 -0.624577E-06  0.373E-03    2.41       6.7  T
   5    -22.5068600 -0.369530E-07  0.200E-03    2.41      12.5  T
   6    -22.5068601 -0.102568E-07  0.838E-04    2.41      29.8  T
   7    -22.5068601 -0.176689E-08  0.213E-04    2.41     117.5  T
     SCC iter.                  ...        0 min,  0.103 sec
     gradient                   ...        0 min,  0.001 sec
 * total energy  :   -22.2363849 Eh     change       -0.5592473E-04 Eh
   gradient norm :     0.0096568 Eh/α   predicted    -0.5015762E-04 ( -10.31%)
   displ. norm   :     0.0867764 α      lambda       -0.1248788E-03
   maximum displ.:     0.0587505 α      in ANC's #3, #6, #1, ...

........................................................................
.............................. CYCLE   10 ..............................
........................................................................

 iter      E             dE          RMSdq      gap      omega  full diag
   1    -22.5080799 -0.225081E+02  0.979E-02    2.43       0.0  T
   2    -22.5080808 -0.984500E-06  0.579E-02    2.42       1.0  T
   3    -22.5080807  0.111414E-06  0.526E-03    2.42       4.8  T
   4    -22.5080810 -0.287610E-06  0.164E-03    2.42      15.2  T
   5    -22.5080810 -0.899377E-08  0.895E-04    2.42      27.9  T
   6    -22.5080810 -0.105622E-08  0.278E-04    2.42      90.0  T
     SCC iter.                  ...        0 min,  0.121 sec
     gradient                   ...        0 min,  0.001 sec
 * total energy  :   -22.2364826 Eh     change       -0.9769955E-04 Eh
   gradient norm :     0.0064520 Eh/α   predicted    -0.6290851E-04 ( -35.61%)
   displ. norm   :     0.1977116 α      lambda       -0.1745398E-03
   maximum displ.:     0.1167327 α      in ANC's #3, #6, #1, ...

........................................................................
.............................. CYCLE   11 ..............................
........................................................................

 iter      E             dE          RMSdq      gap      omega  full diag
   1    -22.5081781 -0.225082E+02  0.230E-01    2.45       0.0  T
   2    -22.5081814 -0.331561E-05  0.135E-01    2.44       1.0  T
   3    -22.5081815 -0.759377E-07  0.903E-03    2.44       2.8  T
   4    -22.5081822 -0.734178E-06  0.356E-03    2.44       7.0  T
   5    -22.5081823 -0.267940E-07  0.183E-03    2.44      13.6  T
   6    -22.5081823 -0.534463E-08  0.510E-04    2.44      49.0  T
   7    -22.5081823 -0.839854E-09  0.267E-04    2.44      93.5  T
     SCC iter.                  ...        0 min,  0.114 sec
     gradient                   ...        0 min,  0.001 sec
 * total energy  :   -22.2366039 Eh     change       -0.1212951E-03 Eh
   gradient norm :     0.0054498 Eh/α   predicted    -0.9067969E-04 ( -25.24%)
   displ. norm   :     0.1551427 α      lambda       -0.1424725E-03
   maximum displ.:     0.0843165 α      in ANC's #1, #3, #6, ...

........................................................................
.............................. CYCLE   12 ..............................
........................................................................

 iter      E             dE          RMSdq      gap      omega  full diag
   1    -22.5094492 -0.225094E+02  0.160E-01    2.46       0.0  T
   2    -22.5094511 -0.189224E-05  0.946E-02    2.45       1.0  T
   3    -22.5094512 -0.911129E-07  0.597E-03    2.45       4.2  T
   4    -22.5094515 -0.308279E-06  0.255E-03    2.45       9.8  T
   5    -22.5094515 -0.184540E-07  0.129E-03    2.45      19.4  T
   6    -22.5094515 -0.180368E-08  0.385E-04    2.45      64.9  T
   7    -22.5094515 -0.614431E-09  0.174E-04    2.45     143.7  T
     SCC iter.                  ...        0 min,  0.111 sec
     gradient                   ...        0 min,  0.001 sec
 * total energy  :   -22.2367027 Eh     change       -0.9884884E-04 Eh
   gradient norm :     0.0047949 Eh/α   predicted    -0.7295167E-04 ( -26.20%)
   displ. norm   :     0.4591156 α      lambda       -0.2553443E-03
   maximum displ.:     0.2148830 α      in ANC's #3, #6, #5, ...

........................................................................
.............................. CYCLE   13 ..............................
........................................................................

 iter      E             dE          RMSdq      gap      omega  full diag
   1    -22.5035775 -0.225036E+02  0.562E-01    2.38       0.0  T
   2    -22.5036055 -0.280210E-04  0.331E-01    2.40       1.0  T
   3    -22.5036071 -0.164225E-05  0.227E-02    2.40       1.1  T
   4    -22.5036109 -0.380425E-05  0.851E-03    2.40       2.9  T
   5    -22.5036110 -0.101999E-06  0.431E-03    2.40       5.8  T
   6    -22.5036111 -0.493887E-07  0.180E-03    2.40      13.9  T
   7    -22.5036111 -0.100118E-07  0.544E-04    2.40      45.9  T
   8    -22.5036111 -0.995737E-09  0.237E-04    2.40     105.5  T
     SCC iter.                  ...        0 min,  0.108 sec
     gradient                   ...        0 min,  0.002 sec
 * total energy  :   -22.2364818 Eh     change        0.2209452E-03 Eh
   gradient norm :     0.0225845 Eh/α   predicted    -0.1545946E-03 (-169.97%)
   displ. norm   :     0.2066872 α      lambda       -0.1012299E-02
   maximum displ.:     0.1426824 α      in ANC's #3, #5, #6, ...

........................................................................
.............................. CYCLE   14 ..............................
........................................................................

 iter      E             dE          RMSdq      gap      omega  full diag
   1    -22.5094220 -0.225094E+02  0.261E-01    2.50       0.0  T
   2    -22.5094387 -0.166709E-04  0.154E-01    2.46       1.0  T
   3    -22.5094367  0.194852E-05  0.211E-02    2.46       1.2  T
   4    -22.5094407 -0.395329E-05  0.511E-03    2.45       4.9  T
   5    -22.5094408 -0.136281E-06  0.262E-03    2.46       9.6  T
   6    -22.5094409 -0.215357E-07  0.119E-03    2.46      21.1  T
   7    -22.5094409 -0.218009E-08  0.379E-04    2.46      66.0  T
   8    -22.5094409 -0.384386E-09  0.121E-04    2.46     206.1  T
     SCC iter.                  ...        0 min,  0.124 sec
     gradient                   ...        0 min,  0.001 sec
 * total energy  :   -22.2369015 Eh     change       -0.4197045E-03 Eh
   gradient norm :     0.0056850 Eh/α   predicted    -0.5277736E-03 (  25.75%)
   displ. norm   :     0.1311099 α      lambda       -0.1186101E-03
   maximum displ.:     0.0754014 α      in ANC's #1, #5, #6, ...

........................................................................
.............................. CYCLE   15 ..............................
........................................................................

 iter      E             dE          RMSdq      gap      omega  full diag
   1    -22.5097014 -0.225097E+02  0.136E-01    2.46       0.0  T
   2    -22.5097026 -0.123462E-05  0.802E-02    2.45       1.0  T
   3    -22.5097027 -0.114688E-06  0.503E-03    2.45       5.0  T
   4    -22.5097029 -0.186337E-06  0.206E-03    2.45      12.1  T
   5    -22.5097029 -0.582392E-08  0.101E-03    2.45      24.7  T
   6    -22.5097029 -0.241010E-08  0.329E-04    2.45      76.0  T
   7    -22.5097029 -0.319098E-09  0.133E-04    2.45     187.4  T
     SCC iter.                  ...        0 min,  0.161 sec
     gradient                   ...        0 min,  0.030 sec
 * total energy  :   -22.2370140 Eh     change       -0.1124782E-03 Eh
   gradient norm :     0.0047779 Eh/α   predicted    -0.6032560E-04 ( -46.37%)
   displ. norm   :     0.7718087 α      lambda       -0.6266132E-03
   maximum displ.:     0.4453686 α      in ANC's #1, #5, #6, ...

........................................................................
.............................. CYCLE   16 ..............................
........................................................................

 iter      E             dE          RMSdq      gap      omega  full diag
   1    -22.5010906 -0.225011E+02  0.786E-01    2.37       0.0  T
   2    -22.5011412 -0.505269E-04  0.463E-01    2.37       1.0  T
   3    -22.5011418 -0.607581E-06  0.339E-02    2.37       1.0  T
   4    -22.5011519 -0.101305E-04  0.118E-02    2.37       2.1  T
   5    -22.5011520 -0.822637E-07  0.559E-03    2.37       4.5  T
   6    -22.5011521 -0.917918E-07  0.163E-03    2.37      15.3  T
   7    -22.5011521 -0.802222E-08  0.774E-04    2.37      32.3  T
   8    -22.5011521 -0.133650E-08  0.291E-04    2.37      85.8  T
     SCC iter.                  ...        0 min,  0.110 sec
     gradient                   ...        0 min,  0.001 sec
 * total energy  :   -22.2367488 Eh     change        0.2651336E-03 Eh
   gradient norm :     0.0255626 Eh/α   predicted    -0.4999488E-03 (-288.56%)
   displ. norm   :     0.3418269 α      lambda       -0.1664799E-02
   maximum displ.:     0.1836998 α      in ANC's #5, #1, #6, ...

........................................................................
.............................. CYCLE   17 ..............................
........................................................................

 iter      E             dE          RMSdq      gap      omega  full diag
   1    -22.5100669 -0.225101E+02  0.395E-01    2.45       0.0  T
   2    -22.5100835 -0.166262E-04  0.234E-01    2.44       1.0  T
   3    -22.5100800  0.350946E-05  0.242E-02    2.44       1.0  T
   4    -22.5100867 -0.668821E-05  0.631E-03    2.43       4.0  T
   5    -22.5100868 -0.112614E-06  0.364E-03    2.44       6.9  T
   6    -22.5100869 -0.184220E-07  0.775E-04    2.44      32.3  T
   7    -22.5100869 -0.139129E-08  0.380E-04    2.44      65.7  T
     SCC iter.                  ...        0 min,  0.104 sec
     gradient                   ...        0 min,  0.001 sec
 * total energy  :   -22.2373412 Eh     change       -0.5923759E-03 Eh
   gradient norm :     0.0045801 Eh/α   predicted    -0.9296652E-03 (  56.94%)
   displ. norm   :     0.1189711 α      lambda       -0.1006861E-03
   maximum displ.:     0.0773845 α      in ANC's #1, #5, #6, ...

........................................................................
.............................. CYCLE   18 ..............................
........................................................................

 iter      E             dE          RMSdq      gap      omega  full diag
   1    -22.5102513 -0.225103E+02  0.109E-01    2.45       0.0  T
   2    -22.5102523 -0.964862E-06  0.643E-02    2.44       1.0  T
   3    -22.5102523 -0.276944E-07  0.488E-03    2.44       5.1  T
   4    -22.5102525 -0.180658E-06  0.184E-03    2.44      13.6  T
   5    -22.5102525 -0.102551E-07  0.892E-04    2.44      28.0  T
   6    -22.5102525 -0.812975E-09  0.263E-04    2.44      94.9  T
     SCC iter.                  ...        0 min,  0.118 sec
     gradient                   ...        0 min,  0.003 sec
 * total energy  :   -22.2374288 Eh     change       -0.8761051E-04 Eh
   gradient norm :     0.0047996 Eh/α   predicted    -0.5105531E-04 ( -41.72%)
   displ. norm   :     0.5692221 α      lambda       -0.3990818E-03
   maximum displ.:     0.3591441 α      in ANC's #1, #5, #6, ...

........................................................................
.............................. CYCLE   19 ..............................
........................................................................

 iter      E             dE          RMSdq      gap      omega  full diag
   1    -22.5055863 -0.225056E+02  0.518E-01    2.39       0.0  T
   2    -22.5056066 -0.203197E-04  0.305E-01    2.39       1.0  T
   3    -22.5056077 -0.110825E-05  0.207E-02    2.38       1.2  T
   4    -22.5056111 -0.342161E-05  0.774E-03    2.38       3.2  T
   5    -22.5056112 -0.368782E-07  0.332E-03    2.38       7.5  T
   6    -22.5056112 -0.309836E-07  0.956E-04    2.38      26.1  T
   7    -22.5056112 -0.203584E-08  0.468E-04    2.38      53.4  T
     SCC iter.                  ...        0 min,  0.111 sec
     gradient                   ...        0 min,  0.001 sec
 * total energy  :   -22.2374536 Eh     change       -0.2480120E-04 Eh
   gradient norm :     0.0161706 Eh/α   predicted    -0.2641802E-03 ( 965.19%)
   displ. norm   :     0.2170699 α      lambda       -0.4705545E-03
   maximum displ.:     0.1225170 α      in ANC's #1, #5, #6, ...

........................................................................
.............................. CYCLE   20 ..............................
........................................................................

 iter      E             dE          RMSdq      gap      omega  full diag
   1    -22.5102169 -0.225102E+02  0.222E-01    2.43       0.0  T
   2    -22.5102224 -0.549408E-05  0.131E-01    2.43       1.0  T
   3    -22.5102216  0.837873E-06  0.129E-02    2.43       1.9  T
   4    -22.5102234 -0.182956E-05  0.350E-03    2.42       7.1  T
   5    -22.5102234 -0.277121E-07  0.200E-03    2.43      12.5  T
   6    -22.5102234 -0.653652E-08  0.428E-04    2.42      58.4  T
   7    -22.5102234 -0.456684E-09  0.223E-04    2.42     112.3  T
     SCC iter.                  ...        0 min,  0.110 sec
     gradient                   ...        0 min,  0.001 sec
 * total energy  :   -22.2376486 Eh     change       -0.1949385E-03 Eh
   gradient norm :     0.0036224 Eh/α   predicted    -0.2463625E-03 (  26.38%)
   displ. norm   :     0.1270545 α      lambda       -0.7365851E-04
   maximum displ.:     0.0889589 α      in ANC's #1, #5, #6, ...
 * RMSD in coord.:     0.5716935 α      energy gain  -0.9510179E-02 Eh

generating ANC from model Hessian ...
Using Lindh-Hessian (1995)
 Shifting diagonal of input Hessian by   7.317156546209757E-003
 Lowest  eigenvalues of input Hessian
    0.000000    0.000000    0.000000    0.000000    0.000000    0.000000
    0.010000    0.012385    0.014383    0.017914    0.019948    0.026352
    0.039513    0.044611    0.050230    0.052939    0.063877    0.068074
 Highest eigenvalues
    1.235509    1.284692    1.411550    1.485491    1.957247    2.188629
 

........................................................................
.............................. CYCLE   21 ..............................
........................................................................

 iter      E             dE          RMSdq      gap      omega  full diag
   1    -22.5102565 -0.225103E+02  0.949E-02    2.43       0.0  T
   2    -22.5102571 -0.577235E-06  0.559E-02    2.42       1.0  T
   3    -22.5102571 -0.656252E-07  0.344E-03    2.42       7.3  T
   4    -22.5102572 -0.804360E-07  0.154E-03    2.42      16.3  T
   5    -22.5102572 -0.552848E-08  0.708E-04    2.42      35.3  T
   6    -22.5102572 -0.891799E-09  0.172E-04    2.42     145.7  T
     SCC iter.                  ...        0 min,  0.109 sec
     gradient                   ...        0 min,  0.003 sec
 * total energy  :   -22.2377137 Eh     change       -0.6512765E-04 Eh
   gradient norm :     0.0031059 Eh/α   predicted     0.0000000E+00 (-100.00%)
   displ. norm   :     0.0325222 α      lambda       -0.3273854E-04
   maximum displ.:     0.0198853 α      in ANC's #3, #5, #4, ...

........................................................................
.............................. CYCLE   22 ..............................
........................................................................

 iter      E             dE          RMSdq      gap      omega  full diag
   1    -22.5108231 -0.225108E+02  0.417E-02    2.42       0.0  T
   2    -22.5108233 -0.228995E-06  0.248E-02    2.42       1.0  T
   3    -22.5108232  0.853943E-07  0.336E-03    2.42       7.4  T
   4    -22.5108233 -0.138669E-06  0.919E-04    2.42      27.2  T
   5    -22.5108234 -0.259901E-08  0.404E-04    2.42      61.9  T
     SCC iter.                  ...        0 min,  0.117 sec
     gradient                   ...        0 min,  0.001 sec
 * total energy  :   -22.2377378 Eh     change       -0.2411200E-04 Eh
   gradient norm :     0.0016295 Eh/α   predicted    -0.1638541E-04 ( -32.04%)
   displ. norm   :     0.1150429 α      lambda       -0.5632228E-04
   maximum displ.:     0.0672911 α      in ANC's #3, #5, #10, ...

........................................................................
.............................. CYCLE   23 ..............................
........................................................................

 iter      E             dE          RMSdq      gap      omega  full diag
   1    -22.5119889 -0.225120E+02  0.146E-01    2.42       0.0  T
   2    -22.5119907 -0.181408E-05  0.865E-02    2.42       1.0  T
   3    -22.5119905  0.230898E-06  0.743E-03    2.42       3.4  T
   4    -22.5119911 -0.623230E-06  0.280E-03    2.42       8.9  T
   5    -22.5119911 -0.294869E-07  0.965E-04    2.42      25.9  T
   6    -22.5119911 -0.162784E-08  0.490E-04    2.42      51.1  T
     SCC iter.                  ...        0 min,  0.117 sec
     gradient                   ...        0 min,  0.002 sec
 * total energy  :   -22.2377652 Eh     change       -0.2741484E-04 Eh
   gradient norm :     0.0051311 Eh/α   predicted    -0.2832532E-04 (   3.32%)
   displ. norm   :     0.0598198 α      lambda       -0.4202080E-04
   maximum displ.:     0.0385414 α      in ANC's #5, #3, #1, ...

........................................................................
.............................. CYCLE   24 ..............................
........................................................................

 iter      E             dE          RMSdq      gap      omega  full diag
   1    -22.5116046 -0.225116E+02  0.790E-02    2.42       0.0  T
   2    -22.5116049 -0.302310E-06  0.466E-02    2.41       1.0  T
   3    -22.5116050 -0.506335E-07  0.261E-03    2.41       9.6  T
   4    -22.5116050 -0.424539E-07  0.125E-03    2.41      20.0  T
   5    -22.5116050 -0.357310E-08  0.664E-04    2.41      37.6  T
   6    -22.5116050 -0.670799E-09  0.167E-04    2.41     149.8  T
     SCC iter.                  ...        0 min,  0.112 sec
     gradient                   ...        0 min,  0.002 sec
 * total energy  :   -22.2377979 Eh     change       -0.3272202E-04 Eh
   gradient norm :     0.0044520 Eh/α   predicted    -0.2108420E-04 ( -35.57%)
   displ. norm   :     0.1216962 α      lambda       -0.6458376E-04
   maximum displ.:     0.0765204 α      in ANC's #5, #3, #1, ...

........................................................................
.............................. CYCLE   25 ..............................
........................................................................

 iter      E             dE          RMSdq      gap      omega  full diag
   1    -22.5106643 -0.225107E+02  0.154E-01    2.42       0.0  T
   2    -22.5106652 -0.938494E-06  0.908E-02    2.41       1.0  T
   3    -22.5106655 -0.264245E-06  0.393E-03    2.41       6.4  T
   4    -22.5106655 -0.497311E-07  0.204E-03    2.41      12.2  T
   5    -22.5106656 -0.577388E-08  0.958E-04    2.41      26.1  T
   6    -22.5106656 -0.184771E-08  0.343E-04    2.41      72.8  T
     SCC iter.                  ...        0 min,  0.104 sec
     gradient                   ...        0 min,  0.001 sec
 * total energy  :   -22.2378368 Eh     change       -0.3887522E-04 Eh
   gradient norm :     0.0031779 Eh/α   predicted    -0.3277012E-04 ( -15.70%)
   displ. norm   :     0.0483503 α      lambda       -0.2350034E-04
   maximum displ.:     0.0277021 α      in ANC's #5, #1, #10, ...

........................................................................
.............................. CYCLE   26 ..............................
........................................................................

 iter      E             dE          RMSdq      gap      omega  full diag
   1    -22.5106394 -0.225106E+02  0.490E-02    2.42       0.0  T
   2    -22.5106395 -0.140279E-06  0.289E-02    2.42       1.0  T
   3    -22.5106395 -0.147450E-07  0.170E-03    2.41      14.7  T
   4    -22.5106395 -0.213999E-07  0.781E-04    2.41      32.0  T
   5    -22.5106395 -0.169285E-08  0.288E-04    2.41      86.8  T
     SCC iter.                  ...        0 min,  0.102 sec
     gradient                   ...        0 min,  0.003 sec
 * total energy  :   -22.2378551 Eh     change       -0.1825146E-04 Eh
   gradient norm :     0.0021005 Eh/α   predicted    -0.1177587E-04 ( -35.48%)
   displ. norm   :     0.0993232 α      lambda       -0.3297367E-04
   maximum displ.:     0.0570735 α      in ANC's #5, #1, #10, ...

........................................................................
.............................. CYCLE   27 ..............................
........................................................................

 iter      E             dE          RMSdq      gap      omega  full diag
   1    -22.5106621 -0.225107E+02  0.101E-01    2.42       0.0  T
   2    -22.5106625 -0.388715E-06  0.599E-02    2.42       1.0  T
   3    -22.5106625 -0.675607E-07  0.311E-03    2.42       8.0  T
   4    -22.5106626 -0.723070E-07  0.144E-03    2.42      17.3  T
   5    -22.5106626 -0.182164E-08  0.415E-04    2.42      60.3  T
   6    -22.5106626 -0.621338E-09  0.185E-04    2.42     135.1  T
     SCC iter.                  ...        0 min,  0.115 sec
     gradient                   ...        0 min,  0.001 sec
 * total energy  :   -22.2378776 Eh     change       -0.2256090E-04 Eh
   gradient norm :     0.0020873 Eh/α   predicted    -0.1665019E-04 ( -26.20%)
   displ. norm   :     0.0811018 α      lambda       -0.1922914E-04
   maximum displ.:     0.0469943 α      in ANC's #1, #5, #10, ...

........................................................................
.............................. CYCLE   28 ..............................
........................................................................

 iter      E             dE          RMSdq      gap      omega  full diag
   1    -22.5110381 -0.225110E+02  0.727E-02    2.42       0.0  T
   2    -22.5110383 -0.199461E-06  0.430E-02    2.42       1.0  T
   3    -22.5110384 -0.344000E-07  0.237E-03    2.42      10.5  T
   4    -22.5110384 -0.430113E-07  0.109E-03    2.42      23.0  T
   5    -22.5110384 -0.127817E-08  0.300E-04    2.42      83.4  T
   6    -22.5110384 -0.233307E-09  0.137E-04    2.42     181.9  T
     SCC iter.                  ...        0 min,  0.111 sec
     gradient                   ...        0 min,  0.003 sec
 * total energy  :   -22.2378916 Eh     change       -0.1392808E-04 Eh
   gradient norm :     0.0019623 Eh/α   predicted    -0.9675993E-05 ( -30.53%)
   displ. norm   :     0.1513306 α      lambda       -0.1547711E-04
   maximum displ.:     0.0854264 α      in ANC's #5, #1, #10, ...

........................................................................
.............................. CYCLE   29 ..............................
........................................................................

 iter      E             dE          RMSdq      gap      omega  full diag
   1    -22.5109291 -0.225109E+02  0.149E-01    2.41       0.0  T
   2    -22.5109299 -0.796514E-06  0.883E-02    2.41       1.0  T
   3    -22.5109301 -0.177899E-06  0.438E-03    2.41       5.7  T
   4    -22.5109302 -0.129772E-06  0.219E-03    2.41      11.4  T
   5    -22.5109302 -0.645808E-08  0.788E-04    2.41      31.7  T
   6    -22.5109302 -0.194480E-08  0.296E-04    2.41      84.5  T
     SCC iter.                  ...        0 min,  0.102 sec
     gradient                   ...        0 min,  0.002 sec
 * total energy  :   -22.2379016 Eh     change       -0.1005260E-04 Eh
   gradient norm :     0.0018276 Eh/α   predicted    -0.7818334E-05 ( -22.23%)
   displ. norm   :     0.0651244 α      lambda       -0.1792511E-04
   maximum displ.:     0.0425677 α      in ANC's #1, #2, #6, ...

........................................................................
.............................. CYCLE   30 ..............................
........................................................................

 iter      E             dE          RMSdq      gap      omega  full diag
   1    -22.5126881 -0.225127E+02  0.429E-02    2.43       0.0  T
   2    -22.5126889 -0.766699E-06  0.256E-02    2.42       1.0  T
   3    -22.5126888  0.117719E-06  0.474E-03    2.42       5.3  T
   4    -22.5126890 -0.208253E-06  0.885E-04    2.42      28.2  T
   5    -22.5126890 -0.394604E-08  0.490E-04    2.42      51.0  T
     SCC iter.                  ...        0 min,  0.103 sec
     gradient                   ...        0 min,  0.001 sec
 * total energy  :   -22.2378934 Eh     change        0.8231080E-05 Eh
   gradient norm :     0.0047097 Eh/α   predicted    -0.8978757E-05 (-209.08%)
   displ. norm   :     0.0184282 α      lambda       -0.2001396E-04
   maximum displ.:     0.0098056 α      in ANC's #2, #3, #1, ...

........................................................................
.............................. CYCLE   31 ..............................
........................................................................

 iter      E             dE          RMSdq      gap      omega  full diag
   1    -22.5119353 -0.225119E+02  0.140E-02    2.41       0.0  T
   2    -22.5119354 -0.978906E-07  0.839E-03    2.41       3.0  T
   3    -22.5119354  0.158008E-07  0.180E-03    2.42      13.9  T
   4    -22.5119354 -0.279857E-07  0.325E-04    2.42      76.8  T
   5    -22.5119354 -0.526033E-09  0.178E-04    2.42     140.2  T
     SCC iter.                  ...        0 min,  0.103 sec
     gradient                   ...        0 min,  0.002 sec
 * total energy  :   -22.2379072 Eh     change       -0.1383113E-04 Eh
   gradient norm :     0.0020740 Eh/α   predicted    -0.1001202E-04 ( -27.61%)
   displ. norm   :     0.0095839 α      lambda       -0.5734823E-05
   maximum displ.:     0.0060045 α      in ANC's #3, #2, #4, ...

........................................................................
.............................. CYCLE   32 ..............................
........................................................................

 iter      E             dE          RMSdq      gap      omega  full diag
   1    -22.5114422 -0.225114E+02  0.614E-03    2.41       0.0  T
   2    -22.5114422 -0.489718E-07  0.368E-03    2.41       6.8  T
   3    -22.5114422  0.182805E-08  0.123E-03    2.41      20.3  T
   4    -22.5114422 -0.687627E-08  0.211E-04    2.41     118.4  T
   5    -22.5114422 -0.273339E-09  0.105E-04    2.41     238.3  T
     SCC iter.                  ...        0 min,  0.170 sec
     gradient                   ...        0 min,  0.017 sec
 * total energy  :   -22.2379105 Eh     change       -0.3295881E-05 Eh
   gradient norm :     0.0003130 Eh/α   predicted    -0.2866885E-05 ( -13.02%)
   displ. norm   :     0.0138135 α      lambda       -0.1062757E-05
   maximum displ.:     0.0085483 α      in ANC's #4, #1, #5, ...

........................................................................
.............................. CYCLE   33 ..............................
........................................................................

 iter      E             dE          RMSdq      gap      omega  full diag
   1    -22.5113130 -0.225113E+02  0.703E-03    2.41       0.0  T
   2    -22.5113130 -0.364697E-08  0.415E-03    2.41       6.0  T
   3    -22.5113130 -0.570033E-10  0.302E-04    2.41      82.7  T
   4    -22.5113130 -0.776740E-09  0.118E-04    2.41     212.4  T
     SCC iter.                  ...        0 min,  0.122 sec
     gradient                   ...        0 min,  0.001 sec
 * total energy  :   -22.2379118 Eh     change       -0.1314120E-05 Eh
   gradient norm :     0.0002052 Eh/α   predicted    -0.5302914E-06 ( -59.65%)
   displ. norm   :     0.0473181 α      lambda       -0.2841386E-05
   maximum displ.:     0.0303466 α      in ANC's #4, #1, #5, ...

........................................................................
.............................. CYCLE   34 ..............................
........................................................................

 iter      E             dE          RMSdq      gap      omega  full diag
   1    -22.5112545 -0.225113E+02  0.334E-02    2.41       0.0  T
   2    -22.5112545 -0.308393E-07  0.197E-02    2.41       1.3  T
   3    -22.5112545 -0.121049E-07  0.831E-04    2.41      30.1  T
   4    -22.5112545 -0.232858E-08  0.472E-04    2.41      52.9  T
     SCC iter.                  ...        0 min,  0.101 sec
     gradient                   ...        0 min,  0.001 sec
 * total energy  :   -22.2379146 Eh     change       -0.2757271E-05 Eh
   gradient norm :     0.0005256 Eh/α   predicted    -0.1421123E-05 ( -48.46%)
   displ. norm   :     0.0259010 α      lambda       -0.7148562E-06
   maximum displ.:     0.0168562 α      in ANC's #1, #4, #2, ...

........................................................................
.............................. CYCLE   35 ..............................
........................................................................

 iter      E             dE          RMSdq      gap      omega  full diag
   1    -22.5113280 -0.225113E+02  0.116E-02    2.41       0.0  T
   2    -22.5113280 -0.125169E-07  0.684E-03    2.41       3.7  T
   3    -22.5113280  0.792930E-10  0.586E-04    2.41      42.7  T
   4    -22.5113280 -0.317073E-08  0.218E-04    2.41     114.6  T
     SCC iter.                  ...        0 min,  0.102 sec
     gradient                   ...        0 min,  0.001 sec
 * total energy  :   -22.2379152 Eh     change       -0.5990673E-06 Eh
   gradient norm :     0.0001832 Eh/α   predicted    -0.3583209E-06 ( -40.19%)
   displ. norm   :     0.0063678 α      lambda       -0.9352937E-07
   maximum displ.:     0.0045214 α      in ANC's #1, #4, #2, ...

........................................................................
.............................. CYCLE   36 ..............................
........................................................................

 iter      E             dE          RMSdq      gap      omega  full diag
   1    -22.5113973 -0.225114E+02  0.252E-03    2.41       0.0  T
   2    -22.5113973 -0.104531E-08  0.150E-03    2.41      16.7  T
   3    -22.5113973 -0.510632E-10  0.162E-04    2.41     154.3  T
   4    -22.5113973 -0.188209E-09  0.656E-05    2.41     380.9  T
     SCC iter.                  ...        0 min,  0.123 sec
     gradient                   ...        0 min,  0.002 sec
 * total energy  :   -22.2379152 Eh     change       -0.6270162E-07 Eh
   gradient norm :     0.0000640 Eh/α   predicted    -0.4644900E-07 ( -25.92%)
   displ. norm   :     0.0025140 α      lambda       -0.1351387E-07
   maximum displ.:     0.0015560 α      in ANC's #1, #5, #10, ...

   *** GEOMETRY OPTIMIZATION CONVERGED AFTER 36 ITERATIONS ***

------------------------------------------------------------------------
 total energy gain   :        -0.0097769 Eh       -6.1351 kcal/mol
 total RMSD          :         0.7240215 a0        0.3831 Å
 total power (kW/mol):        -0.7130312 (step)   -5.5098 (real)
------------------------------------------------------------------------

 ANCopt (total)                0 d,  0 h,  0 min,  4.659 sec
 optimizer setup                ...        0 min,  0.000 sec (  0.003%)
 model hessian                  ...        0 min,  0.018 sec (  0.378%)
 ANC generation                 ...        0 min,  0.001 sec (  0.015%)
 coordinate transformation      ...        0 min,  0.000 sec (  0.010%)
 single point calculation       ...        0 min,  4.619 sec ( 99.145%)
 optimization log               ...        0 min,  0.003 sec (  0.072%)
 hessian update                 ...        0 min,  0.009 sec (  0.196%)
 rational function              ...        0 min,  0.006 sec (  0.131%)

================
 final structure:
================
16
 xtb: 6.7.0 (08769fc)
C           -1.23624291850519       -1.49217260217077        0.40547547608280
C           -1.55483695158484       -0.07035725677109        0.01214852342517
C           -0.93423886420210        0.55674039487479       -1.17973222269866
N           -0.61087498933109        1.01289319444790        0.15146536042362
C            0.68087050768438        0.88971358255616        0.77615497504591
C            1.78706954473398        0.03823628774148        0.20915467691221
O            1.74886250591721       -0.73870951117363       -0.70820442217651
H           -1.24510777662172       -1.59865765469391        1.49024320807757
H           -0.26400309738562       -1.79827566337956        0.02826172813129
H           -1.98976857307415       -2.15945413512092       -0.00850285089018
H           -2.56665196603269        0.23572132104999        0.26826590709158
H           -1.49815341328774        1.26781755356934       -1.77096188538392
H           -0.20841270071716       -0.01693280799772       -1.74041813021844
H            0.53033247970736        0.55550670320482        1.81142466429107
H            1.09797964316896        1.90567510033840        0.83963957940318
H            2.74102400963042        0.21783424372473        0.74922331168338
 
 Bond Distances (Angstroems)
 ---------------------------
C1-C2=1.5092         C1-H8=1.0900         C1-H9=1.0868         C1-H10=1.0883        C2-C1=1.5092         C2-C3=1.4829         
C2-N4=1.4436         C2-H11=1.0877        C3-C2=1.4829         C3-N4=1.4439         C3-H12=1.0831        C3-H13=1.0818        
N4-C2=1.4436         N4-C3=1.4439         N4-C5=1.4401         C5-N4=1.4401         C5-C6=1.5067         C5-H14=1.0982        
C5-H15=1.1001        C6-C5=1.5067         C6-O7=1.2028         C6-H16=1.1108        O7-C6=1.2028         H8-C1=1.0900         
H9-C1=1.0868         H10-C1=1.0883        H11-C2=1.0877        H12-C3=1.0831        H13-C3=1.0818        H14-C5=1.0982        
H15-C5=1.1001        H16-C6=1.1108        
 C  H  Rav=1.0919 sigma=0.0088  Rmin=1.0818  Rmax=1.1108     9
 C  C  Rav=1.4996 sigma=0.0119  Rmin=1.4829  Rmax=1.5092     3
 N  C  Rav=1.4425 sigma=0.0017  Rmin=1.4401  Rmax=1.4439     3
 O  C  Rav=1.2028 sigma=0.0000  Rmin=1.2028  Rmax=1.2028     1
 
 selected bond angles (degree)
 --------------------
H8-C1-C2=110.47                H9-C1-C2=111.33                H9-C1-H8=108.98                H10-C1-C2=109.41               
H10-C1-H8=108.24               H10-C1-H9=108.34               C3-C2-C1=121.30                N4-C2-C1=122.94                
N4-C2-C3= 59.11                H11-C2-C1=113.59               H11-C2-C3=117.36               H11-C2-N4=111.99               
N4-C3-C2= 59.09                H12-C3-C2=119.90               H12-C3-N4=114.36               H13-C3-C2=118.24               
H13-C3-N4=119.68               H13-C3-H12=114.49              C3-N4-C2= 61.80                C5-N4-C2=124.35                
C5-N4-C3=125.01                C6-C5-N4=122.93                H14-C5-N4=108.18               H14-C5-C6=106.46               
H15-C5-N4=106.63               H15-C5-C6=105.38               H15-C5-H14=106.18              O7-C6-C5=128.96                
H16-C6-C5=110.86               H16-C6-O7=120.17               
 
 selected dihedral angles (degree)
 ---------------------------------
C3-C2-C1-H8=145.91            C3-C2-C1-H9= 24.69            C3-C2-C1-H10=264.97           N4-C2-C1-H8= 74.69            
N4-C2-C1-H9=313.47            N4-C2-C1-H10=193.76           H11-C2-C1-H8=294.37           H11-C2-C1-H9=173.15           
H11-C2-C1-H10= 53.43          N4-C3-C2-C1=247.80            N4-C3-C2-H11=100.47           H12-C3-C2-C1=145.67           
H12-C3-C2-N4=257.86           H12-C3-C2-H11=358.33          H13-C3-C2-C1=357.28           H13-C3-C2-N4=109.48           
H13-C3-C2-H11=209.95          C3-N4-C2-C1=109.50            C3-N4-C2-H11=250.37           C5-N4-C2-C1=354.52            
C5-N4-C2-C3=245.03            C5-N4-C2-H11=135.40           C2-N4-C3-H12=111.51           C2-N4-C3-H13=252.93           
C5-N4-C3-C2=113.96            C5-N4-C3-H12=225.47           C5-N4-C3-H13=  6.89           C6-C5-N4-C2= 65.53            
C6-C5-N4-C3=348.24            H14-C5-N4-C2=300.92           H14-C5-N4-C3=223.63           H15-C5-N4-C2=187.08           
H15-C5-N4-C3=109.79           O7-C6-C5-N4=351.73            O7-C6-C5-H14=117.11           O7-C6-C5-H15=229.61           
H16-C6-C5-N4=170.58           H16-C6-C5-H14=295.96          H16-C6-C5-H15= 48.46          
           -------------------------------------------------
          |                Final Singlepoint                |
           -------------------------------------------------

          ...................................................
          :                      SETUP                      :
          :.................................................:
          :  # basis functions                  37          :
          :  # atomic orbitals                  37          :
          :  # shells                           23          :
          :  # electrons                        40          :
          :  max. iterations                  4000          :
          :  Hamiltonian                  GFN2-xTB          :
          :  restarted?                      false          :
          :  GBSA solvation                   true          :
          :  PC potential                    false          :
          :  electronic temp.          300.0000000     K    :
          :  accuracy                    1.0000000          :
          :  -> integral cutoff          0.2500000E+02      :
          :  -> integral neglect         0.1000000E-07      :
          :  -> SCF convergence          0.1000000E-05 Eh   :
          :  -> wf. convergence          0.1000000E-03 e    :
          :  Broyden damping             0.4000000          :
          :  net charge                          0          :
          :  unpaired electrons                  0          :
          ...................................................

 iter      E             dE          RMSdq      gap      omega  full diag
   1    -22.5113973 -0.225114E+02  0.206E-05    2.41       0.0  T
   2    -22.5113973 -0.355271E-12  0.122E-05    2.41    2055.9  T
   3    -22.5113973  0.319744E-13  0.438E-06    2.41    5701.6  T

   *** convergence criteria satisfied after 3 iterations ***

         #    Occupation            Energy/Eh            Energy/eV
      -------------------------------------------------------------
         1        2.0000           -0.7310956             -19.8941
       ...           ...                  ...                  ...
        14        2.0000           -0.4837557             -13.1637
        15        2.0000           -0.4692443             -12.7688
        16        2.0000           -0.4576952             -12.4545
        17        2.0000           -0.4380807             -11.9208
        18        2.0000           -0.4338457             -11.8055
        19        2.0000           -0.4158253             -11.3152
        20        2.0000           -0.3608315              -9.8187 (HOMO)
        21                         -0.2722691              -7.4088 (LUMO)
        22                         -0.0706441              -1.9223
        23                          0.0139761               0.3803
        24                          0.0636952               1.7332
        25                          0.0936941               2.5495
       ...                                ...                  ...
        37                          0.6066016              16.5065
      -------------------------------------------------------------
                  HL-Gap            0.0885623 Eh            2.4099 eV
             Fermi-level           -0.3165503 Eh           -8.6138 eV

 SCC (total)                   0 d,  0 h,  0 min,  0.104 sec
 SCC setup                      ...        0 min,  0.000 sec (  0.268%)
 Dispersion                     ...        0 min,  0.000 sec (  0.046%)
 classical contributions        ...        0 min,  0.000 sec (  0.011%)
 integral evaluation            ...        0 min,  0.000 sec (  0.442%)
 iterations                     ...        0 min,  0.101 sec ( 97.261%)
 molecular gradient             ...        0 min,  0.002 sec (  1.803%)
 printout                       ...        0 min,  0.000 sec (  0.131%)

         :::::::::::::::::::::::::::::::::::::::::::::::::::::
         ::                     SUMMARY                     ::
         :::::::::::::::::::::::::::::::::::::::::::::::::::::
         :: total energy             -22.237915245705 Eh    ::
         :: total w/o Gsasa/hb       -22.229443308019 Eh    ::
         :: gradient norm              0.000064263806 Eh/a0 ::
         :: HOMO-LUMO gap              2.409903791014 eV    ::
         ::.................................................::
         :: SCC energy               -22.511368359483 Eh    ::
         :: -> isotropic ES            0.031577313122 Eh    ::
         :: -> anisotropic ES          0.002405782829 Eh    ::
         :: -> anisotropic XC          0.014551774887 Eh    ::
         :: -> dispersion             -0.010280297661 Eh    ::
         :: -> Gsolv                  -0.010438796558 Eh    ::
         ::    -> Gelec               -0.001966858872 Eh    ::
         ::    -> Gsasa               -0.010680080824 Eh    ::
         ::    -> Ghb                  0.000000000000 Eh    ::
         ::    -> Gshift               0.002208143139 Eh    ::
         :: repulsion energy           0.273453113778 Eh    ::
         :: add. restraining           0.000000000000 Eh    ::
         :: total charge               0.000000000000 e     ::
         :::::::::::::::::::::::::::::::::::::::::::::::::::::

           -------------------------------------------------
          |                Property Printout                |
           -------------------------------------------------

    * Orbital Energies and Occupations

         #    Occupation            Energy/Eh            Energy/eV
      -------------------------------------------------------------
         1        2.0000           -0.7310956             -19.8941
       ...           ...                  ...                  ...
         8        2.0000           -0.5663182             -15.4103
         9        2.0000           -0.5568649             -15.1531
        10        2.0000           -0.5330040             -14.5038
        11        2.0000           -0.5255007             -14.2996
        12        2.0000           -0.5109087             -13.9025
        13        2.0000           -0.4993255             -13.5873
        14        2.0000           -0.4837557             -13.1637
        15        2.0000           -0.4692443             -12.7688
        16        2.0000           -0.4576952             -12.4545
        17        2.0000           -0.4380807             -11.9208
        18        2.0000           -0.4338457             -11.8055
        19        2.0000           -0.4158253             -11.3152
        20        2.0000           -0.3608315              -9.8187 (HOMO)
        21                         -0.2722691              -7.4088 (LUMO)
        22                         -0.0706441              -1.9223
        23                          0.0139761               0.3803
        24                          0.0636952               1.7332
        25                          0.0936941               2.5495
        26                          0.1348903               3.6706
        27                          0.1431068               3.8941
        28                          0.1585629               4.3147
        29                          0.1827294               4.9723
        30                          0.1880386               5.1168
        31                          0.2067693               5.6265
       ...                                ...                  ...
        37                          0.6066016              16.5065
      -------------------------------------------------------------
                  HL-Gap            0.0885623 Eh            2.4099 eV
             Fermi-level           -0.3165503 Eh           -8.6138 eV

     #   Z          covCN         q      C6AA      α(0)
     1   6 C        3.751    -0.110    22.671     6.790
     2   6 C        3.788     0.042    19.878     6.350
     3   6 C        3.738    -0.007    20.774     6.504
     4   7 N        2.724    -0.199    25.320     7.473
     5   6 C        3.734    -0.011    20.854     6.517
     6   6 C        2.754     0.211    23.525     7.942
     7   8 O        0.856    -0.348    20.675     6.096
     8   1 H        0.925     0.038     2.480     2.463
     9   1 H        0.925     0.051     2.308     2.376
    10   1 H        0.925     0.042     2.424     2.435
    11   1 H        0.925     0.035     2.514     2.479
    12   1 H        0.925     0.037     2.495     2.470
    13   1 H        0.925     0.042     2.419     2.432
    14   1 H        0.923     0.081     1.967     2.193
    15   1 H        0.923     0.078     2.002     2.213
    16   1 H        0.921     0.018     2.767     2.601

 Mol. C6AA /au·bohr⁶  :       2164.635935
 Mol. C8AA /au·bohr⁸  :      46888.503187
 Mol. α(0) /au        :         69.335769


Wiberg/Mayer (AO) data.
largest (>0.10) Wiberg bond orders for each atom

 ---------------------------------------------------------------------------
     #   Z sym  total        # sym  WBO       # sym  WBO       # sym  WBO
 ---------------------------------------------------------------------------
     1   6 C    3.996 --     2 C    1.015    10 H    0.982     9 H    0.981
                             8 H    0.981
     2   6 C    3.937 --     1 C    1.015     3 C    0.974    11 H    0.966
                             4 N    0.955
     3   6 C    3.933 --    12 H    0.975     2 C    0.974    13 H    0.970
                             4 N    0.963
     4   7 N    3.056 --     5 C    1.024     3 C    0.963     2 C    0.955
     5   6 C    3.991 --     4 N    1.024     6 C    1.005    15 H    0.933
                            14 H    0.927
     6   6 C    3.910 --     7 O    1.893     5 C    1.005    16 H    0.930
     7   8 O    2.085 --     6 C    1.893
     8   1 H    0.999 --     1 C    0.981
     9   1 H    0.997 --     1 C    0.981
    10   1 H    0.998 --     1 C    0.982
    11   1 H    0.999 --     2 C    0.966
    12   1 H    0.999 --     3 C    0.975
    13   1 H    0.998 --     3 C    0.970
    14   1 H    0.993 --     5 C    0.927
    15   1 H    0.994 --     5 C    0.933
    16   1 H    0.999 --     6 C    0.930
 ---------------------------------------------------------------------------

Topologies differ in total number of bonds
Writing topology from bond orders to xtbtopo.mol

molecular dipole:
                 x           y           z       tot (Debye)
 q only:       -0.304       0.418       0.699
   full:       -0.054       0.288       0.800       2.166
molecular quadrupole (traceless):
                xx          xy          yy          xz          yz          zz
 q only:       -0.227       4.132      -0.638       4.153      -0.582       0.866
  q+dip:        1.041       4.997      -2.064       4.646      -1.458       1.023
   full:        0.555       5.573      -1.826       4.706      -2.096       1.270

           -------------------------------------------------
          |                Geometry Summary                 |
           -------------------------------------------------

      molecular mass/u    :       99.1312544
   center of mass at/Å    :        0.0090041       0.0003194      -0.0489058
  moments of inertia/u·Å² :        0.1269350E+03   0.2272622E+03   0.2591030E+03
rotational constants/cm⁻¹ :        0.1328052E+00   0.7417701E-01   0.6506150E-01

 * 14 selected distances

     #   Z          #   Z                                           value/Å
     1   6 C        2   6 C                                       1.5092275 (max)
     2   6 C        3   6 C                                       1.4828936
     2   6 C        4   7 N                                       1.4435738
     3   6 C        4   7 N                                       1.4438584
     4   7 N        5   6 C                                       1.4401448
     6   6 C        7   8 O                                       1.2027687
     1   6 C        8   1 H                                       1.0900178
     1   6 C        9   1 H                                       1.0868486
     1   6 C       10   1 H                                       1.0883216
     2   6 C       11   1 H                                       1.0876810
     3   6 C       12   1 H                                       1.0831358
     3   6 C       13   1 H                                       1.0818010 (min)
     5   6 C       14   1 H                                       1.0982438
     5   6 C       15   1 H                                       1.1000856

 * 4 distinct bonds (by element types)

   Z      Z             #   av. dist./Å        max./Å        min./Å
   1 H    6 C           8     1.0895169     1.1000856     1.0818010
   6 C    6 C           2     1.4960606     1.5092275     1.4828936
   6 C    7 N           3     1.4425257     1.4438584     1.4401448
   6 C    8 O           1     1.2027687     1.2027687     1.2027687


optimized geometry written to: xtbopt.xyz


           -------------------------------------------------
          | TOTAL ENERGY              -22.237915245705 Eh   |
          | GRADIENT NORM               0.000064263806 Eh/α |
          | HOMO-LUMO GAP               2.409903791014 eV   |
           -------------------------------------------------

------------------------------------------------------------------------
 * finished run on 2024/08/07 at 20:16:31.119     
------------------------------------------------------------------------
 total:
 * wall-time:     0 d,  0 h,  0 min,  4.889 sec
 *  cpu-time:     0 d,  0 h,  0 min, 35.303 sec
 * ratio c/w:     7.221 speedup
 SCF:
 * wall-time:     0 d,  0 h,  0 min,  0.114 sec
 *  cpu-time:     0 d,  0 h,  0 min,  0.878 sec
 * ratio c/w:     7.687 speedup
 ANC optimizer:
 * wall-time:     0 d,  0 h,  0 min,  4.764 sec
 *  cpu-time:     0 d,  0 h,  0 min, 34.352 sec
 * ratio c/w:     7.211 speedup

