16
 energy: -22.237915245705 gnorm: 0.000064263806 xtb: 6.7.0 (08769fc)
C           -1.23624291850519       -1.49217260217077        0.40547547608280
C           -1.55483695158484       -0.07035725677109        0.01214852342517
C           -0.93423886420210        0.55674039487479       -1.17973222269866
N           -0.61087498933109        1.01289319444790        0.15146536042362
C            0.68087050768438        0.88971358255616        0.77615497504591
C            1.78706954473398        0.03823628774148        0.20915467691221
O            1.74886250591721       -0.73870951117363       -0.70820442217651
H           -1.24510777662172       -1.59865765469391        1.49024320807757
H           -0.26400309738562       -1.79827566337956        0.02826172813129
H           -1.98976857307415       -2.15945413512092       -0.00850285089018
H           -2.56665196603269        0.23572132104999        0.26826590709158
H           -1.49815341328774        1.26781755356934       -1.77096188538392
H           -0.20841270071716       -0.01693280799772       -1.74041813021844
H            0.53033247970736        0.55550670320482        1.81142466429107
H            1.09797964316896        1.90567510033840        0.83963957940318
H            2.74102400963042        0.21783424372473        0.74922331168338
